VARIABLES = "population","individual","x1","x2","x3","objective1","objective2","p1","p2","p3"
ZONE T = "POP042_IND000"
042 000 -1.131220E+00 3.606543E-02 -8.254007E-01 -1.645124E+01 -5.596215E+00 -1.920555E+00 3.367500E-02 -3.418850E-01
ZONE T = "POP042_IND001"
042 001 5.280000E-02 -7.360000E-03 -2.048984E+00 -1.653178E+01 -1.773509E+00 -2.003544E+00 7.960000E-04 2.109144E+00
ZONE T = "POP042_IND002"
042 002 9.920011E-01 7.296891E-01 -1.111262E+00 -1.548221E+01 3.992949E+00 6.104280E-01 -8.043900E-01 1.373574E+00
ZONE T = "POP042_IND003"
042 003 -1.111894E+00 -9.558480E-01 -1.115997E+00 -1.491200E+01 -1.050999E+01 -3.183739E+00 -1.186084E+00 9.599500E-01
ZONE T = "POP042_IND004"
042 004 -5.702918E-01 -8.976095E-01 -1.090799E+00 -1.562282E+01 -6.418683E+00 -2.558700E+00 -5.583790E-01 1.418116E+00
ZONE T = "POP042_IND005"
042 005 -4.046918E-01 3.288445E-02 -4.187063E-01 -1.841437E+01 3.507260E-01 -7.905140E-01 5.572000E-03 -1.887000E-02
ZONE T = "POP042_IND006"
042 006 -7.760077E-01 -6.908161E-01 -1.136855E+00 -1.578773E+01 -6.177056E+00 -2.603679E+00 -6.094440E-01 1.051663E+00
ZONE T = "POP042_IND007"
042 007 -1.931777E+00 -8.403758E-01 -3.235533E-01 -1.491358E+01 -3.991991E+00 -3.095706E+00 -5.252620E-01 -7.678480E-01
ZONE T = "POP042_IND008"
042 008 -1.075719E+00 2.418019E-02 -1.193408E+00 -1.594009E+01 -7.432126E+00 -2.244947E+00 3.104200E-02 9.350900E-02
ZONE T = "POP042_IND009"
042 009 -1.361456E+00 -7.536976E-01 -5.558755E-01 -1.561737E+01 -3.125088E+00 -2.671029E+00 -5.703980E-01 -5.188300E-02
ZONE T = "POP042_IND010"
042 010 -1.216433E+00 5.181650E-01 -1.154114E+00 -1.544089E+01 -6.290911E+00 -1.852382E+00 7.274530E-01 -5.804840E-01
ZONE T = "POP042_IND011"
042 011 -1.789627E-01 -8.988547E-01 -1.048546E+00 -1.591168E+01 -5.709115E+00 -2.126363E+00 -1.686710E-01 1.768438E+00
ZONE T = "POP042_IND012"
042 012 5.844828E-02 -4.907113E-02 -9.649752E-01 -1.809133E+01 -2.747065E+00 -9.555980E-01 2.768000E-03 1.072495E+00
ZONE T = "POP042_IND013"
042 013 -5.805840E-01 -2.485253E-02 -1.225082E+00 -1.672929E+01 -3.918425E+00 -1.830519E+00 -1.767700E-02 6.693510E-01
ZONE T = "POP042_IND014"
042 014 -1.001621E-01 -5.147121E-01 -1.056179E+00 -1.691022E+01 -3.513061E+00 -1.671053E+00 -5.445100E-02 1.470729E+00
ZONE T = "POP042_IND015"
042 015 -4.265645E-01 7.031148E-02 8.320000E-04 -1.903204E+01 2.428610E-01 -3.554210E-01 -2.500000E-05 -4.977080E-01
ZONE T = "POP042_IND016"
042 016 -1.119661E+00 -4.118156E-01 -1.086319E+00 -1.580399E+01 -7.417223E+00 -2.617795E+00 -5.008950E-01 3.784730E-01
ZONE T = "POP042_IND017"
042 017 -1.010058E+00 -6.176257E-01 -9.082353E-01 -1.591946E+01 -6.246072E+00 -2.535919E+00 -5.665920E-01 5.158030E-01
ZONE T = "POP042_IND018"
042 018 -8.659600E-01 -8.434290E-03 -6.529089E-01 -1.718544E+01 -2.772991E+00 -1.527303E+00 -4.769000E-03 -2.046170E-01
ZONE T = "POP042_IND019"
042 019 -2.083975E+00 -2.084630E-02 -1.386684E+00 -1.416918E+01 -9.714770E-01 -3.491505E+00 -6.024200E-02 -6.764450E-01
ZONE T = "POP042_IND020"
042 020 -1.064483E+00 -7.315029E-01 -9.302037E-01 -1.561596E+01 -7.408879E+00 -2.726189E+00 -7.243240E-01 5.972240E-01
ZONE T = "POP042_IND021"
042 021 -9.587666E-02 4.172611E-01 -7.224746E-01 -1.764253E+01 -6.144800E-02 -4.010900E-01 2.890300E-02 2.093370E-01
ZONE T = "POP042_IND022"
042 022 -7.089771E-01 3.000599E-02 -1.349339E+00 -1.631118E+01 -2.816105E+00 -2.028310E+00 2.870500E-02 6.103560E-01
ZONE T = "POP042_IND023"
042 023 -1.277763E-01 7.891958E-01 -5.779252E-01 -1.674546E+01 3.055513E+00 8.349400E-02 5.827800E-02 -3.390470E-01
ZONE T = "POP042_IND024"
042 024 2.672913E-01 1.858062E-02 -9.703438E-01 -1.771395E+01 -2.497721E+00 -6.844720E-01 -4.819000E-03 1.219054E+00
ZONE T = "POP042_IND025"
042 025 -2.049784E-01 -3.429935E-01 -8.021255E-01 -1.763091E+01 -1.167627E+00 -1.350097E+00 -5.639400E-02 9.401410E-01
ZONE T = "POP042_IND026"
042 026 4.875142E-02 -4.928864E-02 -1.531840E-02 -1.975961E+01 2.144910E-01 -1.585600E-02 3.700000E-05 1.133580E-01
ZONE T = "POP042_IND027"
042 027 -1.036381E+00 -9.600348E-01 -1.083869E+00 -1.502441E+01 -1.007146E+01 -3.080285E+00 -1.078408E+00 1.007523E+00
ZONE T = "POP042_IND028"
042 028 -1.708722E-01 -1.154416E-02 4.404925E-02 -1.957262E+01 3.292010E-01 -1.383670E-01 8.700000E-05 -2.033770E-01
ZONE T = "POP042_IND029"
042 029 -1.789743E+00 -8.991191E-01 -9.675451E-01 -1.437780E+01 -1.156863E+00 -3.656407E+00 -1.556966E+00 7.692100E-02
ZONE T = "POP042_IND030"
042 030 -1.056823E+00 -1.028478E-02 -1.672782E-01 -1.776507E+01 -3.336994E+00 -1.234386E+00 -1.818000E-03 -8.792600E-01
ZONE T = "POP042_IND031"
042 031 -1.270826E+00 -9.077980E-01 -9.675451E-01 -1.498663E+01 -8.656234E+00 -3.146170E+00 -1.116212E+00 6.045170E-01
ZONE T = "POP045_IND000"
045 000 -1.131220E+00 -8.573244E-01 -1.442964E+00 -1.467705E+01 -5.263165E+00 -3.431508E+00 -1.399419E+00 1.169068E+00
ZONE T = "POP045_IND001"
045 001 5.280000E-02 2.003152E-01 -3.753223E-01 -1.877848E+01 6.046600E-01 -1.222070E-01 -3.970000E-03 2.278070E-01
ZONE T = "POP045_IND002"
045 002 5.844828E-02 -4.907113E-02 -1.061587E+00 -1.793377E+01 -3.411402E+00 -1.052210E+00 3.045000E-03 1.169106E+00
ZONE T = "POP045_IND003"
045 003 -1.137423E+00 -7.261748E-01 -1.099574E+00 -1.531784E+01 -8.737124E+00 -2.963173E+00 -9.082130E-01 6.883260E-01
ZONE T = "POP045_IND004"
045 004 9.002910E-01 2.275704E-03 -1.210851E+00 -1.620143E+01 5.299310E-01 -3.082840E-01 -2.481000E-03 2.108866E+00
ZONE T = "POP045_IND005"
045 005 -9.418355E-01 8.885818E-01 -5.411150E-01 -1.583992E+01 1.205147E+00 -5.943690E-01 4.528580E-01 -1.289302E+00
ZONE T = "POP045_IND006"
045 006 -2.210382E+00 -9.236674E-01 -1.111262E+00 -1.368337E+01 3.701390E-01 -4.245312E+00 -2.268817E+00 -1.754530E-01
ZONE T = "POP045_IND007"
045 007 9.110253E-02 -1.526880E-03 -1.041049E+00 -1.793978E+01 -3.329192E+00 -9.514740E-01 1.450000E-04 1.133679E+00
ZONE T = "POP045_IND008"
045 008 -7.754196E-01 3.906450E-01 -9.690752E-01 -1.652009E+01 -3.634976E+00 -1.353850E+00 2.935460E-01 -1.969890E-01
ZONE T = "POP045_IND009"
045 009 -1.174020E+00 3.615456E-01 -6.594147E-01 -1.642527E+01 -3.875515E+00 -1.471889E+00 2.798960E-01 -8.761510E-01
ZONE T = "POP045_IND010"
045 010 -1.187056E+00 -4.835776E-02 -8.964700E-01 -1.624154E+01 -6.121327E+00 -2.131884E+00 -5.146000E-02 -2.422280E-01
ZONE T = "POP045_IND011"
045 011 -8.530475E-01 -1.345538E-01 -1.041434E+00 -1.651944E+01 -5.326893E+00 -2.029035E+00 -1.195370E-01 3.229400E-01
ZONE T = "POP045_IND012"
045 012 -9.402630E-01 -5.446188E-01 -7.251315E-01 -1.638794E+01 -4.018545E+00 -2.210013E+00 -3.713290E-01 3.294870E-01
ZONE T = "POP045_IND013"
045 013 -4.350135E-01 1.047388E-02 -1.084681E+00 -1.721625E+01 -3.588610E+00 -1.509221E+00 4.942000E-03 6.391940E-01
ZONE T = "POP045_IND014"
045 014 -1.654438E+00 -8.449977E-01 -9.718400E-01 -1.462598E+01 1.454412E+00 -3.471275E+00 -1.358628E+00 1.624000E-01
ZONE T = "POP045_IND015"
045 015 -3.907758E-01 9.557396E-03 -9.142662E-01 -1.757681E+01 -2.331461E+00 -1.295485E+00 3.415000E-03 5.139330E-01
ZONE T = "POP045_IND016"
045 016 3.547928E-01 -2.494681E-02 1.542425E-01 -1.900571E+01 9.543500E-01 4.840890E-01 -1.365000E-03 2.254970E-01
ZONE T = "POP045_IND017"
045 017 -1.036381E+00 -3.953203E-02 -6.739498E-02 -1.797167E+01 -3.267319E+00 -1.143308E+00 -2.761000E-03 -9.294540E-01
ZONE T = "POP045_IND018"
045 018 -1.056823E+00 -8.210298E-01 -1.117936E+00 -1.522918E+01 -9.184071E+00 -2.995788E+00 -9.700140E-01 8.821430E-01
ZONE T = "POP045_IND019"
045 019 -9.699396E-01 -8.872172E-01 -1.066988E+00 -1.526468E+01 -8.918605E+00 -2.924144E+00 -9.181930E-01 9.842650E-01
ZONE T = "POP045_IND020"
045 020 -1.001812E+00 3.523619E-02 -9.703438E-01 -1.641829E+01 -6.134005E+00 -1.936919E+00 3.425300E-02 -6.670400E-02
ZONE T = "POP045_IND021"
045 021 3.815094E-02 1.325710E-02 -4.735522E-01 -1.901557E+01 1.250170E-01 -4.221440E-01 -2.400000E-04 4.984460E-01
ZONE T = "POP045_IND022"
045 022 -1.091796E+00 -8.094012E-03 -1.672782E-01 -1.770892E+01 -3.509930E+00 -1.267168E+00 -1.478000E-03 -9.164240E-01
ZONE T = "POP045_IND023"
045 023 -3.049434E-01 -1.122217E+00 -7.717496E-01 -1.554038E+01 -5.001923E+00 -2.198910E+00 -2.641030E-01 1.589024E+00
ZONE T = "POP045_IND024"
045 024 -1.167776E+00 -2.110413E-01 -1.087390E+00 -1.590011E+01 -7.354566E+00 -2.466208E+00 -2.679860E-01 1.306560E-01
ZONE T = "POP045_IND025"
045 025 1.315277E-01 -7.622307E-01 -9.633093E-01 -1.638846E+01 -4.056230E+00 -1.594012E+00 9.657600E-02 1.857068E+00
ZONE T = "POP045_IND026"
045 026 -1.988578E+00 -9.124435E-01 -1.348710E+00 -1.367635E+01 -7.686272E+00 -4.249732E+00 -2.447188E+00 2.725750E-01
ZONE T = "POP045_IND027"
045 027 -4.525381E-01 -1.136406E+00 -1.168882E+00 -1.504757E+01 -7.663402E+00 -2.757826E+00 -6.011180E-01 1.852750E+00
ZONE T = "POP045_IND028"
045 028 4.039853E-01 6.485275E-01 -8.759087E-02 -1.735611E+01 3.007053E+00 9.649220E-01 -2.294800E-02 -1.569510E-01
ZONE T = "POP045_IND029"
045 029 -7.977397E-01 2.761093E-01 -1.015485E+00 -1.654852E+01 -4.451413E+00 -1.537116E+00 2.236740E-01 -5.836400E-02
ZONE T = "POP045_IND030"
045 030 -1.056823E+00 -6.377379E-01 -1.209680E+00 -1.541958E+01 -7.899552E+00 -2.904240E+00 -8.152950E-01 7.905950E-01
ZONE T = "POP045_IND031"
045 031 -7.089771E-01 3.000599E-02 -1.580938E+00 -1.596570E+01 4.138856E+00 -2.259909E+00 3.363200E-02 8.419550E-01
ZONE T = "POP020_IND000"
020 000 -3.812825E+00 -1.242730E+00 -1.142061E+00 -1.161918E+01 3.518900E-02 -6.197616E+00 -5.411440E+00 -1.428034E+00
ZONE T = "POP020_IND001"
020 001 -1.834573E-01 -1.237983E+00 -3.349901E+00 -1.268118E+01 -1.581150E-01 -4.771341E+00 -7.608190E-01 4.404426E+00
ZONE T = "POP020_IND002"
020 002 5.280000E-02 -3.154088E+00 4.056640E+00 -8.899356E+00 2.328754E+00 9.553520E-01 -6.755760E-01 -8.497520E-01
ZONE T = "POP020_IND003"
020 003 6.859459E-01 1.912858E-01 -9.351040E-01 -1.693474E+01 -7.321400E-02 -5.787200E-02 -1.226970E-01 1.429764E+00
ZONE T = "POP020_IND004"
020 004 9.750308E-01 -6.618157E-01 -8.461588E-02 -1.665109E+01 4.404170E+00 2.285990E-01 5.460200E-02 1.721462E+00
ZONE T = "POP020_IND005"
020 005 -4.944640E-02 8.620385E-01 1.655770E+00 -1.529824E+01 5.375160E-01 2.468362E+00 -7.057700E-02 -2.567255E+00
ZONE T = "POP020_IND006"
020 006 -1.030848E+00 5.174486E-01 -1.304000E+00 -1.549332E+01 -4.894428E+00 -1.817399E+00 6.955680E-01 -2.442970E-01
ZONE T = "POP020_IND007"
020 007 -1.269427E-01 -1.513246E+00 -1.440512E-02 -1.476921E+01 3.198097E+00 -1.654594E+00 -2.767000E-03 1.400709E+00
ZONE T = "POP020_IND008"
020 008 -7.528545E-01 2.193860E-01 2.626092E-01 -1.788698E+01 -4.889490E-01 -2.708590E-01 -4.337400E-02 -1.234850E+00
ZONE T = "POP020_IND009"
020 009 -1.193562E+00 3.051464E-01 -1.607176E+00 -1.502573E+01 2.418116E+00 -2.495591E+00 5.853510E-01 1.084680E-01
ZONE T = "POP020_IND010"
020 010 4.785728E+00 -1.932367E+00 7.578957E-01 -1.016464E+01 5.789279E+00 3.611256E+00 -7.008856E+00 5.960200E+00
ZONE T = "POP020_IND011"
020 011 2.228800E+00 -9.678822E-01 -1.627625E+00 -1.299825E+01 3.077700E-02 -3.667070E-01 3.511139E+00 4.824307E+00
ZONE T = "POP020_IND012"
020 012 -3.554376E-02 1.896860E+00 -3.863353E+00 -1.107077E+01 2.778063E+00 -2.002036E+00 2.604730E-01 1.930949E+00
ZONE T = "POP020_IND013"
020 013 2.228800E+00 -1.612363E+00 1.646932E+00 -1.207528E+01 -6.438600E-01 2.263369E+00 -5.918475E+00 2.194231E+00
ZONE T = "POP020_IND014"
020 014 -2.432192E+00 1.329260E-01 4.042714E+00 -1.059678E+01 -3.274300E-02 1.743448E+00 -1.307015E+00 -6.607832E+00
ZONE T = "POP020_IND015"
020 015 -5.000000E+00 -1.441996E+00 -3.481656E-01 -1.096464E+01 7.549886E+00 -6.790162E+00 -2.510268E+00 -3.209838E+00
ZONE T = "POP020_IND016"
020 016 -9.673600E-01 -8.474323E-01 -2.938607E+00 -1.315649E+01 -3.777625E+00 -4.753399E+00 -2.408988E+00 2.818679E+00
ZONE T = "POP020_IND017"
020 017 1.246972E+00 -1.520000E-01 -1.304000E+00 -1.546911E+01 3.307785E+00 -2.090280E-01 2.471600E-01 2.702972E+00
ZONE T = "POP020_IND018"
020 018 -3.228612E+00 -1.022423E+00 3.664000E-01 -1.312727E+01 -4.042439E+00 -3.884635E+00 1.209489E+00 -2.572590E+00
ZONE T = "POP020_IND019"
020 019 1.235162E+00 -3.153699E+00 3.940676E+00 -8.723601E+00 6.702090E+00 2.022139E+00 -1.535023E+01 4.481850E-01
ZONE T = "POP020_IND020"
020 020 1.033856E-01 4.147226E-01 -8.337792E-01 -1.748139E+01 -8.547470E-01 -3.156710E-01 -3.574900E-02 5.224420E-01
ZONE T = "POP020_IND021"
020 021 -1.593403E+00 -4.157603E+00 2.860461E+00 -7.749207E+00 3.987125E+00 -2.890545E+00 1.894980E+01 -2.962610E-01
ZONE T = "POP020_IND022"
020 022 -2.618880E-03 -2.154166E+00 -6.198451E-01 -1.288671E+01 4.063186E+00 -2.776630E+00 -3.497000E-03 2.771392E+00
ZONE T = "POP020_IND023"
020 023 -1.066145E+00 5.190170E-01 -7.390236E-01 -1.623628E+01 -3.518876E+00 -1.286152E+00 4.089370E-01 -8.461390E-01
ZONE T = "POP020_IND024"
020 024 -2.432192E+00 1.009178E-01 3.180160E-01 -1.550004E+01 -2.082234E+00 -2.013258E+00 -7.805700E-02 -2.851126E+00
ZONE T = "POP020_IND025"
020 025 2.525272E+00 1.104497E+00 -1.565030E+00 -1.257971E+01 1.074951E+01 2.064739E+00 -4.365110E+00 2.985805E+00
ZONE T = "POP020_IND026"
020 026 1.909335E-01 8.900060E-01 -3.112046E+00 -1.356983E+01 1.171643E+01 -2.031107E+00 -5.288360E-01 2.412974E+00
ZONE T = "POP020_IND027"
020 027 -7.670103E-01 2.250025E+00 -3.529549E+00 -1.054560E+01 -1.269036E+00 -2.046534E+00 6.091270E+00 5.125130E-01
ZONE T = "POP020_IND028"
020 028 -2.037440E+00 -2.187581E+00 2.272226E+00 -1.082126E+01 2.065824E+00 -1.952795E+00 1.012746E+01 -2.122085E+00
ZONE T = "POP020_IND029"
020 029 -3.675994E+00 -8.913464E-01 -2.277760E-01 -1.301242E+01 3.530598E+00 -4.795116E+00 -7.463270E-01 -2.556871E+00
ZONE T = "POP020_IND030"
020 030 -5.000000E+00 -1.150400E+00 1.718602E+00 -1.019645E+01 -3.022500E-01 -4.431798E+00 9.885400E+00 -5.568202E+00
ZONE T = "POP020_IND031"
020 031 -1.186014E+00 -3.302207E+00 1.654746E+00 -9.734428E+00 3.131560E-01 -2.833476E+00 6.480751E+00 4.614480E-01
ZONE T = "POP027_IND000"
027 000 -1.056823E+00 -4.787777E-01 -8.038850E-01 -1.622246E+01 -5.213803E+00 -2.339486E+00 -4.067520E-01 2.258400E-01
ZONE T = "POP027_IND001"
027 001 -6.358505E-02 2.115200E-01 -1.492779E+00 -1.696467E+01 2.742009E+00 -1.344844E+00 2.007700E-02 1.217674E+00
ZONE T = "POP027_IND002"
027 002 -7.532860E-01 -1.140296E+00 -1.153806E+00 -1.483774E+01 -9.021115E+00 -3.047389E+00 -9.910840E-01 1.540817E+00
ZONE T = "POP027_IND003"
027 003 -7.772151E-01 5.078362E-01 -1.222421E-01 -1.731340E+01 -3.325100E-02 -3.916210E-01 4.824900E-02 -1.162809E+00
ZONE T = "POP027_IND004"
027 004 -1.059899E+00 1.213555E+00 -1.304000E+00 -1.424805E+01 -2.988950E-01 -1.150345E+00 1.677264E+00 -9.694540E-01
ZONE T = "POP027_IND005"
027 005 -9.418355E-01 -8.005367E-01 7.023144E-01 -1.589136E+01 -1.920595E+00 -1.040058E+00 5.295270E-01 -8.436130E-01
ZONE T = "POP027_IND006"
027 006 2.236258E+00 1.402060E-01 2.333410E+00 -1.265374E+01 -1.265980E-01 4.709874E+00 7.316100E-01 -2.373580E-01
ZONE T = "POP027_IND007"
027 007 -1.433676E+00 -8.929286E-01 -1.554080E+00 -1.412083E+01 2.307590E+00 -3.880685E+00 -1.989487E+00 1.013332E+00
ZONE T = "POP027_IND008"
027 008 -1.834573E-01 -3.773909E-01 -7.813887E-01 -1.760176E+01 -1.058441E+00 -1.342237E+00 -5.410000E-02 9.753220E-01
ZONE T = "POP027_IND009"
027 009 5.280000E-02 -1.919749E-01 -1.628598E+00 -1.681343E+01 6.423930E+00 -1.767773E+00 1.650800E-02 1.873373E+00
ZONE T = "POP027_IND010"
027 010 2.254060E-01 -4.496461E-01 -7.960102E-01 -1.737195E+01 -1.148566E+00 -1.020250E+00 8.067800E-02 1.471062E+00
ZONE T = "POP027_IND011"
027 011 -3.158480E-01 -8.733030E-01 -1.856151E-01 -1.666967E+01 -1.723884E+00 -1.374766E+00 -5.119800E-02 7.430700E-01
ZONE T = "POP027_IND012"
027 012 -8.061388E-01 -1.242730E+00 -1.270053E+00 -1.444500E+01 -8.398383E+00 -3.318923E+00 -1.272356E+00 1.706645E+00
ZONE T = "POP027_IND013"
027 013 -1.031839E+00 1.526355E-01 -2.030068E+00 -1.477247E+01 -5.783481E+00 -2.909272E+00 3.197260E-01 8.455940E-01
ZONE T = "POP027_IND014"
027 014 -8.990624E-01 2.319156E-02 8.710954E-02 -1.817510E+01 -2.209200E+00 -7.887610E-01 -1.816000E-03 -1.009363E+00
ZONE T = "POP027_IND015"
027 015 2.903223E+00 -7.633345E-02 4.600064E-02 -1.541759E+01 -5.178340E-01 2.872890E+00 -1.019400E-02 2.933556E+00
ZONE T = "POP027_IND016"
027 016 -1.192468E+00 -8.309541E-01 1.755522E-01 -1.591534E+01 -5.385854E+00 -1.847870E+00 1.739520E-01 -5.370660E-01
ZONE T = "POP027_IND017"
027 017 -1.893622E+00 -1.518475E-02 5.787905E-01 -1.575381E+01 8.831140E-01 -1.330016E+00 1.664300E-02 -2.457228E+00
ZONE T = "POP027_IND018"
027 018 6.010505E-01 -4.184324E-01 -2.737844E+00 -1.438439E+01 -8.609530E-01 -2.555226E+00 6.885650E-01 3.757327E+00
ZONE T = "POP027_IND019"
027 019 -5.129788E-01 -1.088813E+00 6.826231E-01 -1.559413E+01 -1.520965E+00 -9.191690E-01 3.812710E-01 -1.067890E-01
ZONE T = "POP027_IND020"
027 020 -4.058101E-01 3.902707E-01 -9.323606E-01 -1.710477E+01 -1.757397E+00 -9.479000E-01 1.476630E-01 1.362800E-01
ZONE T = "POP027_IND021"
027 021 1.543365E+00 -1.243712E-01 -1.214036E+00 -1.517113E+01 -4.666832E+00 2.049570E-01 2.330340E-01 2.881772E+00
ZONE T = "POP027_IND022"
027 022 -6.581043E-01 2.193860E-01 2.626092E-01 -1.804304E+01 9.323900E-02 -1.761090E-01 -3.791500E-02 -1.140100E+00
ZONE T = "POP027_IND023"
027 023 -1.200617E+00 -1.227787E+00 5.256865E-01 -1.474902E+01 -6.083893E+00 -1.902717E+00 7.749150E-01 -4.985170E-01
ZONE T = "POP027_IND024"
027 024 -4.194033E-01 -5.917384E-01 2.462213E-01 -1.744663E+01 1.596000E-01 -7.649200E-01 6.110600E-02 -7.388600E-02
ZONE T = "POP027_IND025"
027 025 1.159092E-02 -2.613632E-01 -4.100640E-01 -1.856346E+01 4.264320E-01 -6.598360E-01 1.242000E-03 6.830180E-01
ZONE T = "POP027_IND026"
027 026 -1.811765E+00 1.470746E+00 1.213058E+00 -1.310036E+01 1.047323E+01 8.720390E-01 -3.232370E+00 -4.495569E+00
ZONE T = "POP027_IND027"
027 027 -8.150644E-01 3.130720E-01 -1.849418E+00 -1.526961E+01 2.435780E-01 -2.351410E+00 4.719230E-01 7.212820E-01
ZONE T = "POP027_IND028"
027 028 8.014082E-01 -6.033421E-01 -1.926323E-01 -1.699243E+01 3.109297E+00 5.434000E-03 9.314200E-02 1.597383E+00
ZONE T = "POP027_IND029"
027 029 -3.352802E+00 -1.943700E+00 -1.304000E+00 -1.086840E+01 -2.735457E+00 -6.600501E+00 -8.497959E+00 -1.051020E-01
ZONE T = "POP027_IND030"
027 030 3.018401E-01 6.002586E-01 -1.115200E+00 -1.650499E+01 -1.565801E+00 -2.131020E-01 -2.020540E-01 8.167820E-01
ZONE T = "POP027_IND031"
027 031 -1.287042E-01 -1.242730E+00 4.164288E-01 -1.548310E+01 -2.469427E+00 -9.550060E-01 6.660600E-02 6.975970E-01
ZONE T = "POP018_IND000"
018 000 -2.421120E-01 -4.012120E+00 2.740800E+00 -8.259948E+00 5.540360E+00 -1.513432E+00 2.662365E+00 1.029208E+00
ZONE T = "POP018_IND001"
018 001 -8.777600E-01 -4.218763E+00 2.447373E+00 -7.994143E+00 8.854833E+00 -2.649150E+00 9.062771E+00 8.936300E-01
ZONE T = "POP018_IND002"
018 002 8.503936E-01 -2.409641E+00 5.000000E+00 -9.293958E+00 1.380905E+00 3.440752E+00 -1.024572E+01 -1.739965E+00
ZONE T = "POP018_IND003"
018 003 2.228800E+00 -1.575606E+00 2.722925E+00 -1.112348E+01 8.927110E+00 3.376119E+00 -9.562123E+00 1.081481E+00
ZONE T = "POP018_IND004"
018 004 -1.334228E+00 -1.242730E+00 -1.142061E+00 -1.407937E+01 -9.589478E+00 -3.719019E+00 -1.893635E+00 1.050562E+00
ZONE T = "POP018_IND005"
018 005 -1.496679E+00 -1.520000E-01 -1.281667E+00 -1.512665E+01 -4.507830E-01 -2.930345E+00 -2.915730E-01 -6.301200E-02
ZONE T = "POP018_IND006"
018 006 1.954368E+00 1.124969E+00 -1.509677E+00 -1.323216E+01 1.524399E+01 1.569660E+00 -3.319180E+00 2.339076E+00
ZONE T = "POP018_IND007"
018 007 -3.368264E+00 -1.095360E+00 9.221760E-01 -1.243425E+01 8.891710E-01 -3.541448E+00 3.402333E+00 -3.195080E+00
ZONE T = "POP018_IND008"
018 008 -7.386324E-01 -1.500813E+00 -1.195200E+00 -1.396988E+01 -2.409258E+00 -3.434645E+00 -1.324938E+00 1.957380E+00
ZONE T = "POP018_IND009"
018 009 -9.748823E-01 -3.509064E+00 4.051684E+00 -8.250066E+00 3.698669E+00 -4.322620E-01 1.386050E+01 -1.517503E+00
ZONE T = "POP018_IND010"
018 010 -2.432192E+00 -7.307668E-01 -6.198451E-01 -1.427343E+01 -4.429167E+00 -3.782804E+00 -1.101691E+00 -1.081580E+00
ZONE T = "POP018_IND011"
018 011 -1.728960E+00 -5.068774E-01 1.639386E+00 -1.406937E+01 2.688033E+00 -5.964520E-01 1.436710E+00 -2.861468E+00
ZONE T = "POP018_IND012"
018 012 -2.637914E+00 -2.380176E-01 -4.249472E-01 -1.495947E+01 4.911580E+00 -3.300878E+00 -2.668120E-01 -1.974949E+00
ZONE T = "POP018_IND013"
018 013 4.205857E+00 2.270538E+00 -3.760048E+00 -7.998709E+00 -1.257079E+00 2.716347E+00 -3.590681E+01 5.695367E+00
ZONE T = "POP018_IND014"
018 014 -3.065338E+00 -2.121593E+00 -5.000000E+00 -8.119193E+00 1.412326E+01 -1.018693E+01 -3.251700E+01 4.056256E+00
ZONE T = "POP018_IND015"
018 015 1.539648E+00 -1.520000E-01 -1.659000E+00 -1.450502E+01 5.629249E+00 -2.713520E-01 3.882500E-01 3.350648E+00
ZONE T = "POP018_IND016"
018 016 1.000945E+00 5.182138E-01 -5.431598E-01 -1.658760E+01 6.316249E+00 9.759990E-01 -2.817390E-01 1.025891E+00
ZONE T = "POP018_IND017"
018 017 -1.437226E+00 8.306632E-01 1.013394E+00 -1.486946E+01 9.374866E+00 4.068310E-01 -1.209841E+00 -3.281284E+00
ZONE T = "POP018_IND018"
018 018 -1.590058E+00 5.518484E-01 1.166093E+00 -1.486763E+01 1.288633E+01 1.278830E-01 -1.023213E+00 -3.308000E+00
ZONE T = "POP018_IND019"
018 019 3.654618E+00 -2.528745E+00 -1.378496E+00 -9.732682E+00 9.839420E-01 -2.526230E-01 1.273950E+01 7.561859E+00
ZONE T = "POP018_IND020"
018 020 -1.058240E+00 4.255507E+00 -5.000000E+00 -6.849901E+00 1.128039E+01 -1.802733E+00 2.251674E+01 -3.137470E-01
ZONE T = "POP018_IND021"
018 021 -5.000000E+00 5.811512E-01 -1.887014E+00 -1.039162E+01 7.876718E+00 -6.305863E+00 5.483204E+00 -3.694137E+00
ZONE T = "POP018_IND022"
018 022 8.019584E-01 -6.129950E-01 -2.653779E+00 -1.397190E+01 5.819392E+00 -2.464816E+00 1.304589E+00 4.068733E+00
ZONE T = "POP018_IND023"
018 023 5.000000E+00 1.041081E+00 -2.951477E+00 -8.948313E+00 5.739415E+00 3.089605E+00 -1.536364E+01 6.910395E+00
ZONE T = "POP018_IND024"
018 024 1.390520E-02 8.681088E-01 2.539082E+00 -1.425284E+01 3.004906E+00 3.421096E+00 3.065000E-02 -3.393286E+00
ZONE T = "POP018_IND025"
018 025 3.686016E-01 -2.393968E-01 3.664000E-01 -1.832035E+01 1.644100E+00 4.956050E-01 -3.233200E-02 2.415980E-01
ZONE T = "POP018_IND026"
018 026 -1.834573E-01 -1.099238E-01 -8.772636E-01 -1.796055E+01 -1.833501E+00 -1.170645E+00 -1.769100E-02 8.037300E-01
ZONE T = "POP018_IND027"
018 027 5.000000E+00 -9.535872E-01 3.875187E+00 -8.114655E+00 5.635680E+00 7.921600E+00 -1.847665E+01 2.078400E+00
ZONE T = "POP018_IND028"
018 028 2.888000E+00 2.334356E-01 -7.600000E-01 -1.413177E+01 -2.935534E+00 2.361436E+00 -5.123630E-01 3.414564E+00
ZONE T = "POP018_IND029"
018 029 6.454162E-01 -1.246295E+00 9.532155E-01 -1.485915E+01 3.326109E+00 3.523370E-01 -7.667470E-01 9.384960E-01
ZONE T = "POP018_IND030"
018 030 5.000000E+00 -2.785392E+00 -4.302003E-01 -8.874284E+00 1.065722E+00 1.784408E+00 5.991383E+00 8.215592E+00
ZONE T = "POP018_IND031"
018 031 -4.807872E+00 3.619023E+00 -1.562376E+00 -7.547119E+00 1.411729E+01 -2.751224E+00 2.718503E+01 -6.864520E+00
ZONE T = "POP011_IND000"
011 000 -4.608192E+00 -2.998515E+00 5.000000E+00 -6.446124E+00 3.762940E+00 -2.606707E+00 6.908867E+01 -6.609677E+00
ZONE T = "POP011_IND001"
011 001 1.534528E+00 -2.229491E+00 5.000000E+00 -9.165556E+00 6.559995E+00 4.305037E+00 -1.710608E+01 -1.235981E+00
ZONE T = "POP011_IND002"
011 002 1.182848E+00 1.751168E-01 -7.907200E-01 -1.637760E+01 4.857329E+00 5.672450E-01 -1.637870E-01 1.798451E+00
ZONE T = "POP011_IND003"
011 003 2.433600E+00 -1.001920E+00 -7.600000E-01 -1.368379E+01 2.304816E+00 6.716800E-01 1.853087E+00 4.195520E+00
ZONE T = "POP011_IND004"
011 004 5.280000E-02 -7.360000E-03 -1.304000E+00 -1.759826E+01 -2.638793E+00 -1.258560E+00 5.070000E-04 1.364160E+00
ZONE T = "POP011_IND005"
011 005 1.195072E+00 -1.606080E+00 4.072000E+00 -1.086734E+01 9.855397E+00 3.660992E+00 -7.815720E+00 -1.270848E+00
ZONE T = "POP011_IND006"
011 006 5.000000E+00 -1.247424E+00 1.800000E+00 -1.002101E+01 -3.503769E+00 5.552576E+00 -1.122682E+01 4.447424E+00
ZONE T = "POP011_IND007"
011 007 -8.905600E-01 -8.055680E-01 -1.637568E+00 -1.480693E+01 2.239389E+00 -3.333696E+00 -1.174802E+00 1.552576E+00
ZONE T = "POP011_IND008"
011 008 -1.200000E-01 8.476800E-01 -2.296000E+00 -1.455566E+01 8.087964E+00 -1.568320E+00 2.335530E-01 1.328320E+00
ZONE T = "POP011_IND009"
011 009 3.031680E-01 -6.220160E-01 5.000000E+00 -1.235811E+01 5.601550E-01 4.681152E+00 -9.428770E-01 -4.074816E+00
ZONE T = "POP011_IND010"
011 010 -1.237440E+00 2.005568E+00 -4.103616E+00 -1.025296E+01 6.229709E+00 -3.335488E+00 1.018423E+01 8.606080E-01
ZONE T = "POP011_IND011"
011 011 -1.839552E+00 -1.778880E+00 4.456000E+00 -9.824681E+00 1.230770E+01 8.375680E-01 1.458156E+01 -4.516672E+00
ZONE T = "POP011_IND012"
011 012 -2.046400E+00 -1.478080E+00 -2.712000E+00 -1.142750E+01 -2.422886E+00 -6.236480E+00 -8.203103E+00 2.143680E+00
ZONE T = "POP011_IND013"
011 013 5.000000E+00 -1.912000E+00 5.000000E+00 -6.855910E+00 -4.793150E-01 8.088000E+00 -4.780000E+01 1.912000E+00
ZONE T = "POP011_IND014"
011 014 -9.631616E-01 1.601252E+00 -2.903488E+00 -1.203394E+01 -1.817150E-01 -2.265398E+00 4.477946E+00 3.390750E-01
ZONE T = "POP011_IND015"
011 015 2.028608E+00 5.000000E+00 2.798400E+00 -6.577933E+00 9.367603E+00 9.827008E+00 2.838428E+01 -5.769792E+00
ZONE T = "POP011_IND016"
011 016 2.228800E+00 2.874493E+00 -4.008384E+00 -8.560077E+00 -7.633833E+00 1.094909E+00 -2.568040E+01 3.362691E+00
ZONE T = "POP011_IND017"
011 017 3.781594E+00 8.144922E-01 -3.672512E+00 -9.325784E+00 9.385409E+00 9.235740E-01 -1.131162E+01 6.639613E+00
ZONE T = "POP011_IND018"
011 018 5.000000E+00 1.357376E+00 1.230400E+00 -1.048023E+01 1.077820E+01 7.587776E+00 8.350577E+00 2.412224E+00
ZONE T = "POP011_IND019"
011 019 1.965632E+00 -4.032509E+00 1.800000E+00 -8.211608E+00 7.072871E+00 -2.668770E-01 -1.426757E+01 4.198141E+00
ZONE T = "POP011_IND020"
011 020 1.901120E+00 -2.206144E+00 -3.248000E-01 -1.198719E+01 1.139822E+01 -6.298240E-01 1.362258E+00 4.432064E+00
ZONE T = "POP011_IND021"
011 021 2.644800E+00 -1.364365E+00 -7.088000E-01 -1.286738E+01 -2.066193E+00 5.716350E-01 2.557685E+00 4.717965E+00
ZONE T = "POP011_IND022"
011 022 3.508288E+00 2.000000E-01 -1.246400E+00 -1.272079E+01 -4.025344E+00 2.461888E+00 -8.745460E-01 4.554688E+00
ZONE T = "POP011_IND023"
011 023 2.792000E+00 1.723200E+00 4.360000E+00 -9.103760E+00 8.255691E+00 8.875200E+00 2.097672E+01 -3.291200E+00
ZONE T = "POP011_IND024"
011 024 -3.440000E-01 6.231680E-01 3.664000E-01 -1.732692E+01 2.799300E+00 6.455680E-01 -7.854500E-02 -1.333568E+00
ZONE T = "POP011_IND025"
011 025 2.496832E+00 -3.680960E+00 2.418240E+00 -8.252610E+00 1.455439E+01 1.234112E+00 -2.222541E+01 3.759552E+00
ZONE T = "POP011_IND026"
011 026 -3.102554E+00 -8.160128E-01 5.000000E+00 -8.894865E+00 6.281390E+00 1.081434E+00 1.265862E+01 -7.286541E+00
ZONE T = "POP011_IND027"
011 027 5.000000E+00 -4.663744E+00 3.284800E+00 -5.742827E+00 -1.250293E+00 3.621056E+00 -7.659733E+01 6.378944E+00
ZONE T = "POP011_IND028"
011 028 2.600000E+00 -1.840000E-01 -4.473280E+00 -1.002187E+01 -4.089451E+00 -2.057280E+00 2.140017E+00 7.257280E+00
ZONE T = "POP011_IND029"
011 029 2.967514E+00 1.231693E+00 4.308800E+00 -9.340120E+00 1.080495E+01 8.508006E+00 1.574895E+01 -2.572979E+00
ZONE T = "POP011_IND030"
011 030 2.640000E-01 1.672832E-01 -2.589120E+00 -1.534579E+01 7.824692E+00 -2.157837E+00 -1.143430E-01 2.685837E+00
ZONE T = "POP011_IND031"
011 031 -4.105600E-01 5.840000E-01 4.404800E+00 -1.278152E+01 2.072609E+00 4.578240E+00 -1.056126E+00 -5.399360E+00
ZONE T = "POP016_IND000"
016 000 2.228800E+00 2.820834E+00 -3.351222E+00 -9.036438E+00 -4.556300E-02 1.698412E+00 -2.106938E+01 2.759188E+00
ZONE T = "POP016_IND001"
016 001 5.280000E-02 6.557312E-01 -4.780890E+00 -1.257651E+01 2.555109E+00 -4.072358E+00 -1.655270E-01 4.177958E+00
ZONE T = "POP016_IND002"
016 002 5.280000E-02 1.759155E-01 2.709261E+00 -1.544939E+01 6.895272E+00 2.937976E+00 2.516500E-02 -2.832376E+00
ZONE T = "POP016_IND003"
016 003 -1.593946E+00 -9.613614E-01 -3.864768E+00 -1.140059E+01 8.135240E-01 -6.420075E+00 -5.922207E+00 3.232184E+00
ZONE T = "POP016_IND004"
016 004 1.669573E+00 1.318372E+00 3.684160E+00 -1.110684E+01 3.071507E+00 6.672105E+00 8.109272E+00 -3.332959E+00
ZONE T = "POP016_IND005"
016 005 1.296602E+00 -1.936645E-01 -2.091200E+00 -1.426387E+01 5.988550E+00 -9.882630E-01 5.251120E-01 3.581466E+00
ZONE T = "POP016_IND006"
016 006 -1.998426E+00 -1.879562E+00 -2.075686E+00 -1.148891E+01 -3.832492E+00 -5.953674E+00 -7.796619E+00 1.956823E+00
ZONE T = "POP016_IND007"
016 007 -2.421120E-01 2.625152E-01 4.072000E+00 -1.373225E+01 -1.239307E+00 4.092403E+00 -2.588090E-01 -4.576627E+00
ZONE T = "POP016_IND008"
016 008 2.364992E+00 1.975872E+00 -5.000000E+00 -8.811226E+00 1.844179E+01 -6.591360E-01 -2.336461E+01 5.389120E+00
ZONE T = "POP016_IND009"
016 009 -5.000000E+00 -3.250470E+00 -1.690368E-02 -8.253817E+00 8.245852E+00 -8.267374E+00 -2.747250E-01 -1.732626E+00
ZONE T = "POP016_IND010"
016 010 5.001815E-01 1.541760E-01 1.411853E+00 -1.653342E+01 4.366188E+00 2.066210E+00 1.088760E-01 -1.065847E+00
ZONE T = "POP016_IND011"
016 011 1.029290E+00 4.136658E-01 -6.024371E-01 -1.665048E+01 5.886933E+00 8.405190E-01 -2.565070E-01 1.218062E+00
ZONE T = "POP016_IND012"
016 012 -1.907392E+00 -1.479424E-02 5.000000E+00 -1.050721E+01 -7.961380E-01 3.077814E+00 1.410920E-01 -6.892598E+00
ZONE T = "POP016_IND013"
016 013 3.080000E+00 -4.499840E-01 5.877376E-01 -1.398974E+01 1.453420E-01 3.217754E+00 -8.145750E-01 2.942246E+00
ZONE T = "POP016_IND014"
016 014 6.660531E-01 -1.990326E+00 1.654746E+00 -1.253109E+01 -4.506660E+00 3.304730E-01 -2.193634E+00 1.001633E+00
ZONE T = "POP016_IND015"
016 015 9.555200E-01 -4.054464E+00 1.876800E+00 -8.438945E+00 1.425241E+01 -1.222144E+00 -7.270951E+00 3.133184E+00
ZONE T = "POP016_IND016"
016 016 -1.038528E+00 6.541440E-01 9.398400E-01 -1.577649E+01 3.265217E+00 5.554560E-01 -6.384770E-01 -2.632512E+00
ZONE T = "POP016_IND017"
016 017 4.490880E-01 -1.913280E+00 1.384000E+00 -1.298573E+01 3.013091E+00 -8.019200E-02 -1.189176E+00 9.783680E-01
ZONE T = "POP016_IND018"