VARIABLES = "population","individual","x1","x2","x3","objective1","objective2","p1","p2","p3"
ZONE T = "DOE_IND000"
-1 000 -5.000000E+00 -5.000000E+00 -5.000000E+00 -4.862335E+00 2.011230E+01 -1.500000E+01 -1.250000E+02 5.000000E+00
ZONE T = "DOE_IND000"
-1 001 -3.571429E+00 -5.000000E+00 -5.000000E+00 -5.357300E+00 1.117689E+01 -1.357143E+01 -8.928571E+01 6.428571E+00
ZONE T = "DOE_IND000"
-1 002 -2.142857E+00 -5.000000E+00 -5.000000E+00 -5.800173E+00 1.726346E+01 -1.214286E+01 -5.357143E+01 7.857143E+00
ZONE T = "DOE_IND000"
-1 003 -7.142857E-01 -5.000000E+00 -5.000000E+00 -6.072802E+00 1.239012E+01 -1.071429E+01 -1.785714E+01 9.285714E+00
ZONE T = "DOE_IND000"
-1 004 7.142857E-01 -5.000000E+00 -5.000000E+00 -6.072802E+00 1.595430E+01 -9.285714E+00 1.785714E+01 1.071429E+01
ZONE T = "DOE_IND000"
-1 005 2.142857E+00 -5.000000E+00 -5.000000E+00 -5.800173E+00 1.323274E+01 -7.857143E+00 5.357143E+01 1.214286E+01
ZONE T = "DOE_IND000"
-1 006 3.571429E+00 -5.000000E+00 -5.000000E+00 -5.357300E+00 2.117688E+01 -6.428571E+00 8.928571E+01 1.357143E+01
ZONE T = "DOE_IND000"
-1 007 5.000000E+00 -5.000000E+00 -5.000000E+00 -4.862335E+00 1.395190E+01 -5.000000E+00 1.250000E+02 1.500000E+01
ZONE T = "DOE_IND000"
-1 008 -5.000000E+00 -3.571429E+00 -5.000000E+00 -5.852264E+00 1.117689E+01 -1.357143E+01 -8.928571E+01 3.571429E+00
ZONE T = "DOE_IND000"
-1 009 -3.571429E+00 -3.571429E+00 -5.000000E+00 -6.567766E+00 2.241474E+00 -1.214286E+01 -6.377551E+01 5.000000E+00
ZONE T = "DOE_IND000"
-1 010 -2.142857E+00 -3.571429E+00 -5.000000E+00 -7.273593E+00 8.328050E+00 -1.071429E+01 -3.826530E+01 6.428571E+00
ZONE T = "DOE_IND000"
-1 011 -7.142857E-01 -3.571429E+00 -5.000000E+00 -7.752787E+00 3.454704E+00 -9.285714E+00 -1.275510E+01 7.857143E+00
ZONE T = "DOE_IND000"
-1 012 7.142857E-01 -3.571429E+00 -5.000000E+00 -7.752787E+00 7.018886E+00 -7.857143E+00 1.275510E+01 9.285714E+00
ZONE T = "DOE_IND000"
-1 013 2.142857E+00 -3.571429E+00 -5.000000E+00 -7.273593E+00 4.297328E+00 -6.428571E+00 3.826530E+01 1.071429E+01
ZONE T = "DOE_IND000"
-1 014 3.571429E+00 -3.571429E+00 -5.000000E+00 -6.567766E+00 1.224147E+01 -5.000000E+00 6.377551E+01 1.214286E+01
ZONE T = "DOE_IND000"
-1 015 5.000000E+00 -3.571429E+00 -5.000000E+00 -5.852264E+00 5.016484E+00 -3.571429E+00 8.928571E+01 1.357143E+01
ZONE T = "DOE_IND000"
-1 016 -5.000000E+00 -2.142857E+00 -5.000000E+00 -6.738010E+00 1.726346E+01 -1.214286E+01 -5.357143E+01 2.142857E+00
ZONE T = "DOE_IND000"
-1 017 -3.571429E+00 -2.142857E+00 -5.000000E+00 -7.716466E+00 8.328050E+00 -1.071429E+01 -3.826530E+01 3.571429E+00
ZONE T = "DOE_IND000"
-1 018 -2.142857E+00 -2.142857E+00 -5.000000E+00 -8.823792E+00 1.441462E+01 -9.285714E+00 -2.295918E+01 5.000000E+00
ZONE T = "DOE_IND000"
-1 019 -7.142857E-01 -2.142857E+00 -5.000000E+00 -9.734113E+00 9.541279E+00 -7.857143E+00 -7.653061E+00 6.428571E+00
ZONE T = "DOE_IND000"
-1 020 7.142857E-01 -2.142857E+00 -5.000000E+00 -9.734113E+00 1.310546E+01 -6.428571E+00 7.653061E+00 7.857143E+00
ZONE T = "DOE_IND000"
-1 021 2.142857E+00 -2.142857E+00 -5.000000E+00 -8.823792E+00 1.038390E+01 -5.000000E+00 2.295918E+01 9.285714E+00
ZONE T = "DOE_IND000"
-1 022 3.571429E+00 -2.142857E+00 -5.000000E+00 -7.716466E+00 1.832805E+01 -3.571429E+00 3.826530E+01 1.071429E+01
ZONE T = "DOE_IND000"
-1 023 5.000000E+00 -2.142857E+00 -5.000000E+00 -6.738010E+00 1.110306E+01 -2.142857E+00 5.357143E+01 1.214286E+01
ZONE T = "DOE_IND000"
-1 024 -5.000000E+00 -7.142857E-01 -5.000000E+00 -7.283268E+00 1.239012E+01 -1.071429E+01 -1.785714E+01 7.142860E-01
ZONE T = "DOE_IND000"
-1 025 -3.571429E+00 -7.142857E-01 -5.000000E+00 -8.468290E+00 3.454704E+00 -9.285714E+00 -1.275510E+01 2.142857E+00
ZONE T = "DOE_IND000"
-1 026 -2.142857E+00 -7.142857E-01 -5.000000E+00 -1.000674E+01 9.541279E+00 -7.857143E+00 -7.653061E+00 3.571429E+00
ZONE T = "DOE_IND000"
-1 027 -7.142857E-01 -7.142857E-01 -5.000000E+00 -1.181233E+01 4.667933E+00 -6.428571E+00 -2.551021E+00 5.000000E+00
ZONE T = "DOE_IND000"
-1 028 7.142857E-01 -7.142857E-01 -5.000000E+00 -1.181233E+01 8.232115E+00 -5.000000E+00 2.551021E+00 6.428571E+00
ZONE T = "DOE_IND000"
-1 029 2.142857E+00 -7.142857E-01 -5.000000E+00 -1.000674E+01 5.510558E+00 -3.571429E+00 7.653061E+00 7.857143E+00
ZONE T = "DOE_IND000"
-1 030 3.571429E+00 -7.142857E-01 -5.000000E+00 -8.468290E+00 1.345470E+01 -2.142857E+00 1.275510E+01 9.285714E+00
ZONE T = "DOE_IND000"
-1 031 5.000000E+00 -7.142857E-01 -5.000000E+00 -7.283268E+00 6.229713E+00 -7.142860E-01 1.785714E+01 1.071429E+01
ZONE T = "DOE_IND000"
-1 032 -5.000000E+00 7.142857E-01 -5.000000E+00 -7.283268E+00 1.595430E+01 -9.285714E+00 1.785714E+01 -7.142860E-01
ZONE T = "DOE_IND000"
-1 033 -3.571429E+00 7.142857E-01 -5.000000E+00 -8.468290E+00 7.018886E+00 -7.857143E+00 1.275510E+01 7.142860E-01
ZONE T = "DOE_IND000"
-1 034 -2.142857E+00 7.142857E-01 -5.000000E+00 -1.000674E+01 1.310546E+01 -6.428571E+00 7.653061E+00 2.142857E+00
ZONE T = "DOE_IND000"
-1 035 -7.142857E-01 7.142857E-01 -5.000000E+00 -1.181233E+01 8.232115E+00 -5.000000E+00 2.551021E+00 3.571429E+00
ZONE T = "DOE_IND000"
-1 036 7.142857E-01 7.142857E-01 -5.000000E+00 -1.181233E+01 1.179630E+01 -3.571429E+00 -2.551021E+00 5.000000E+00
ZONE T = "DOE_IND000"
-1 037 2.142857E+00 7.142857E-01 -5.000000E+00 -1.000674E+01 9.074740E+00 -2.142857E+00 -7.653061E+00 6.428571E+00
ZONE T = "DOE_IND000"
-1 038 3.571429E+00 7.142857E-01 -5.000000E+00 -8.468290E+00 1.701888E+01 -7.142860E-01 -1.275510E+01 7.857143E+00
ZONE T = "DOE_IND000"
-1 039 5.000000E+00 7.142857E-01 -5.000000E+00 -7.283268E+00 9.793895E+00 7.142860E-01 -1.785714E+01 9.285714E+00
ZONE T = "DOE_IND000"
-1 040 -5.000000E+00 2.142857E+00 -5.000000E+00 -6.738010E+00 1.323274E+01 -7.857143E+00 5.357143E+01 -2.142857E+00
ZONE T = "DOE_IND000"
-1 041 -3.571429E+00 2.142857E+00 -5.000000E+00 -7.716466E+00 4.297328E+00 -6.428571E+00 3.826530E+01 -7.142860E-01
ZONE T = "DOE_IND000"
-1 042 -2.142857E+00 2.142857E+00 -5.000000E+00 -8.823792E+00 1.038390E+01 -5.000000E+00 2.295918E+01 7.142860E-01
ZONE T = "DOE_IND000"
-1 043 -7.142857E-01 2.142857E+00 -5.000000E+00 -9.734113E+00 5.510558E+00 -3.571429E+00 7.653061E+00 2.142857E+00
ZONE T = "DOE_IND000"
-1 044 7.142857E-01 2.142857E+00 -5.000000E+00 -9.734113E+00 9.074740E+00 -2.142857E+00 -7.653061E+00 3.571429E+00
ZONE T = "DOE_IND000"
-1 045 2.142857E+00 2.142857E+00 -5.000000E+00 -8.823792E+00 6.353183E+00 -7.142860E-01 -2.295918E+01 5.000000E+00
ZONE T = "DOE_IND000"
-1 046 3.571429E+00 2.142857E+00 -5.000000E+00 -7.716466E+00 1.429733E+01 7.142860E-01 -3.826530E+01 6.428571E+00
ZONE T = "DOE_IND000"
-1 047 5.000000E+00 2.142857E+00 -5.000000E+00 -6.738010E+00 7.072338E+00 2.142857E+00 -5.357143E+01 7.857143E+00
ZONE T = "DOE_IND000"
-1 048 -5.000000E+00 3.571429E+00 -5.000000E+00 -5.852264E+00 2.117688E+01 -6.428571E+00 8.928571E+01 -3.571429E+00
ZONE T = "DOE_IND000"
-1 049 -3.571429E+00 3.571429E+00 -5.000000E+00 -6.567766E+00 1.224147E+01 -5.000000E+00 6.377551E+01 -2.142857E+00
ZONE T = "DOE_IND000"
-1 050 -2.142857E+00 3.571429E+00 -5.000000E+00 -7.273593E+00 1.832805E+01 -3.571429E+00 3.826530E+01 -7.142860E-01
ZONE T = "DOE_IND000"
-1 051 -7.142857E-01 3.571429E+00 -5.000000E+00 -7.752787E+00 1.345470E+01 -2.142857E+00 1.275510E+01 7.142860E-01
ZONE T = "DOE_IND000"
-1 052 7.142857E-01 3.571429E+00 -5.000000E+00 -7.752787E+00 1.701888E+01 -7.142860E-01 -1.275510E+01 2.142857E+00
ZONE T = "DOE_IND000"
-1 053 2.142857E+00 3.571429E+00 -5.000000E+00 -7.273593E+00 1.429733E+01 7.142860E-01 -3.826530E+01 3.571429E+00
ZONE T = "DOE_IND000"
-1 054 3.571429E+00 3.571429E+00 -5.000000E+00 -6.567766E+00 2.224147E+01 2.142857E+00 -6.377551E+01 5.000000E+00
ZONE T = "DOE_IND000"
-1 055 5.000000E+00 3.571429E+00 -5.000000E+00 -5.852264E+00 1.501648E+01 3.571429E+00 -8.928571E+01 6.428571E+00
ZONE T = "DOE_IND000"
-1 056 -5.000000E+00 5.000000E+00 -5.000000E+00 -4.862335E+00 1.395190E+01 -5.000000E+00 1.250000E+02 -5.000000E+00
ZONE T = "DOE_IND000"
-1 057 -3.571429E+00 5.000000E+00 -5.000000E+00 -5.357300E+00 5.016484E+00 -3.571429E+00 8.928571E+01 -3.571429E+00
ZONE T = "DOE_IND000"
-1 058 -2.142857E+00 5.000000E+00 -5.000000E+00 -5.800173E+00 1.110306E+01 -2.142857E+00 5.357143E+01 -2.142857E+00
ZONE T = "DOE_IND000"
-1 059 -7.142857E-01 5.000000E+00 -5.000000E+00 -6.072802E+00 6.229713E+00 -7.142860E-01 1.785714E+01 -7.142860E-01
ZONE T = "DOE_IND000"
-1 060 7.142857E-01 5.000000E+00 -5.000000E+00 -6.072802E+00 9.793895E+00 7.142860E-01 -1.785714E+01 7.142860E-01
ZONE T = "DOE_IND000"
-1 061 2.142857E+00 5.000000E+00 -5.000000E+00 -5.800173E+00 7.072338E+00 2.142857E+00 -5.357143E+01 2.142857E+00
ZONE T = "DOE_IND000"
-1 062 3.571429E+00 5.000000E+00 -5.000000E+00 -5.357300E+00 1.501648E+01 3.571429E+00 -8.928571E+01 3.571429E+00
ZONE T = "DOE_IND000"
-1 063 5.000000E+00 5.000000E+00 -5.000000E+00 -4.862335E+00 7.791493E+00 5.000000E+00 -1.250000E+02 5.000000E+00
ZONE T = "DOE_IND000"
-1 064 -5.000000E+00 -5.000000E+00 -3.571429E+00 -5.357300E+00 1.117689E+01 -1.357143E+01 -8.928571E+01 3.571429E+00
ZONE T = "DOE_IND000"
-1 065 -3.571429E+00 -5.000000E+00 -3.571429E+00 -5.852264E+00 2.241474E+00 -1.214286E+01 -6.377551E+01 5.000000E+00
ZONE T = "DOE_IND000"
-1 066 -2.142857E+00 -5.000000E+00 -3.571429E+00 -6.295137E+00 8.328050E+00 -1.071429E+01 -3.826530E+01 6.428571E+00
ZONE T = "DOE_IND000"
-1 067 -7.142857E-01 -5.000000E+00 -3.571429E+00 -6.567766E+00 3.454704E+00 -9.285714E+00 -1.275510E+01 7.857143E+00
ZONE T = "DOE_IND000"
-1 068 7.142857E-01 -5.000000E+00 -3.571429E+00 -6.567766E+00 7.018886E+00 -7.857143E+00 1.275510E+01 9.285714E+00
ZONE T = "DOE_IND000"
-1 069 2.142857E+00 -5.000000E+00 -3.571429E+00 -6.295137E+00 4.297328E+00 -6.428571E+00 3.826530E+01 1.071429E+01
ZONE T = "DOE_IND000"
-1 070 3.571429E+00 -5.000000E+00 -3.571429E+00 -5.852264E+00 1.224147E+01 -5.000000E+00 6.377551E+01 1.214286E+01
ZONE T = "DOE_IND000"
-1 071 5.000000E+00 -5.000000E+00 -3.571429E+00 -5.357300E+00 5.016484E+00 -3.571429E+00 8.928571E+01 1.357143E+01
ZONE T = "DOE_IND000"
-1 072 -5.000000E+00 -3.571429E+00 -3.571429E+00 -6.567766E+00 2.241474E+00 -1.214286E+01 -6.377551E+01 2.142857E+00
ZONE T = "DOE_IND000"
-1 073 -3.571429E+00 -3.571429E+00 -3.571429E+00 -7.283269E+00 -6.693939E+00 -1.071429E+01 -4.555394E+01 3.571429E+00
ZONE T = "DOE_IND000"
-1 074 -2.142857E+00 -3.571429E+00 -3.571429E+00 -7.989095E+00 -6.073640E-01 -9.285714E+00 -2.733236E+01 5.000000E+00
ZONE T = "DOE_IND000"
-1 075 -7.142857E-01 -3.571429E+00 -3.571429E+00 -8.468290E+00 -5.480710E+00 -7.857143E+00 -9.110787E+00 6.428571E+00
ZONE T = "DOE_IND000"
-1 076 7.142857E-01 -3.571429E+00 -3.571429E+00 -8.468290E+00 -1.916528E+00 -6.428571E+00 9.110787E+00 7.857143E+00
ZONE T = "DOE_IND000"
-1 077 2.142857E+00 -3.571429E+00 -3.571429E+00 -7.989095E+00 -4.638085E+00 -5.000000E+00 2.733236E+01 9.285714E+00
ZONE T = "DOE_IND000"
-1 078 3.571429E+00 -3.571429E+00 -3.571429E+00 -7.283269E+00 3.306057E+00 -3.571429E+00 4.555394E+01 1.071429E+01
ZONE T = "DOE_IND000"
-1 079 5.000000E+00 -3.571429E+00 -3.571429E+00 -6.567766E+00 -3.918930E+00 -2.142857E+00 6.377551E+01 1.214286E+01
ZONE T = "DOE_IND000"
-1 080 -5.000000E+00 -2.142857E+00 -3.571429E+00 -7.716466E+00 8.328050E+00 -1.071429E+01 -3.826530E+01 7.142860E-01
ZONE T = "DOE_IND000"
-1 081 -3.571429E+00 -2.142857E+00 -3.571429E+00 -8.694922E+00 -6.073640E-01 -9.285714E+00 -2.733236E+01 2.142857E+00
ZONE T = "DOE_IND000"
-1 082 -2.142857E+00 -2.142857E+00 -3.571429E+00 -9.802248E+00 5.479211E+00 -7.857143E+00 -1.639942E+01 3.571429E+00
ZONE T = "DOE_IND000"
-1 083 -7.142857E-01 -2.142857E+00 -3.571429E+00 -1.071257E+01 6.058650E-01 -6.428571E+00 -5.466472E+00 5.000000E+00
ZONE T = "DOE_IND000"
-1 084 7.142857E-01 -2.142857E+00 -3.571429E+00 -1.071257E+01 4.170047E+00 -5.000000E+00 5.466472E+00 6.428571E+00
ZONE T = "DOE_IND000"
-1 085 2.142857E+00 -2.142857E+00 -3.571429E+00 -9.802248E+00 1.448490E+00 -3.571429E+00 1.639942E+01 7.857143E+00
ZONE T = "DOE_IND000"
-1 086 3.571429E+00 -2.142857E+00 -3.571429E+00 -8.694922E+00 9.392632E+00 -2.142857E+00 2.733236E+01 9.285714E+00
ZONE T = "DOE_IND000"
-1 087 5.000000E+00 -2.142857E+00 -3.571429E+00 -7.716466E+00 2.167645E+00 -7.142860E-01 3.826530E+01 1.071429E+01
ZONE T = "DOE_IND000"
-1 088 -5.000000E+00 -7.142857E-01 -3.571429E+00 -8.468290E+00 3.454704E+00 -9.285714E+00 -1.275510E+01 -7.142860E-01
ZONE T = "DOE_IND000"
-1 089 -3.571429E+00 -7.142857E-01 -3.571429E+00 -9.653311E+00 -5.480710E+00 -7.857143E+00 -9.110787E+00 7.142860E-01
ZONE T = "DOE_IND000"
-1 090 -2.142857E+00 -7.142857E-01 -3.571429E+00 -1.119176E+01 6.058650E-01 -6.428571E+00 -5.466472E+00 2.142857E+00
ZONE T = "DOE_IND000"
-1 091 -7.142857E-01 -7.142857E-01 -3.571429E+00 -1.299736E+01 -4.267480E+00 -5.000000E+00 -1.822158E+00 3.571429E+00
ZONE T = "DOE_IND000"
-1 092 7.142857E-01 -7.142857E-01 -3.571429E+00 -1.299736E+01 -7.032980E-01 -3.571429E+00 1.822158E+00 5.000000E+00
ZONE T = "DOE_IND000"
-1 093 2.142857E+00 -7.142857E-01 -3.571429E+00 -1.119176E+01 -3.424856E+00 -2.142857E+00 5.466472E+00 6.428571E+00
ZONE T = "DOE_IND000"
-1 094 3.571429E+00 -7.142857E-01 -3.571429E+00 -9.653311E+00 4.519287E+00 -7.142860E-01 9.110787E+00 7.857143E+00
ZONE T = "DOE_IND000"
-1 095 5.000000E+00 -7.142857E-01 -3.571429E+00 -8.468290E+00 -2.705701E+00 7.142860E-01 1.275510E+01 9.285714E+00
ZONE T = "DOE_IND000"
-1 096 -5.000000E+00 7.142857E-01 -3.571429E+00 -8.468290E+00 7.018886E+00 -7.857143E+00 1.275510E+01 -2.142857E+00
ZONE T = "DOE_IND000"
-1 097 -3.571429E+00 7.142857E-01 -3.571429E+00 -9.653311E+00 -1.916528E+00 -6.428571E+00 9.110787E+00 -7.142860E-01
ZONE T = "DOE_IND000"
-1 098 -2.142857E+00 7.142857E-01 -3.571429E+00 -1.119176E+01 4.170047E+00 -5.000000E+00 5.466472E+00 7.142860E-01
ZONE T = "DOE_IND000"
-1 099 -7.142857E-01 7.142857E-01 -3.571429E+00 -1.299736E+01 -7.032980E-01 -3.571429E+00 1.822158E+00 2.142857E+00
ZONE T = "DOE_IND000"
-1 100 7.142857E-01 7.142857E-01 -3.571429E+00 -1.299736E+01 2.860884E+00 -2.142857E+00 -1.822158E+00 3.571429E+00
ZONE T = "DOE_IND000"
-1 101 2.142857E+00 7.142857E-01 -3.571429E+00 -1.119176E+01 1.393260E-01 -7.142860E-01 -5.466472E+00 5.000000E+00
ZONE T = "DOE_IND000"
-1 102 3.571429E+00 7.142857E-01 -3.571429E+00 -9.653311E+00 8.083469E+00 7.142860E-01 -9.110787E+00 6.428571E+00
ZONE T = "DOE_IND000"
-1 103 5.000000E+00 7.142857E-01 -3.571429E+00 -8.468290E+00 8.584810E-01 2.142857E+00 -1.275510E+01 7.857143E+00
ZONE T = "DOE_IND000"
-1 104 -5.000000E+00 2.142857E+00 -3.571429E+00 -7.716466E+00 4.297328E+00 -6.428571E+00 3.826530E+01 -3.571429E+00
ZONE T = "DOE_IND000"
-1 105 -3.571429E+00 2.142857E+00 -3.571429E+00 -8.694922E+00 -4.638085E+00 -5.000000E+00 2.733236E+01 -2.142857E+00
ZONE T = "DOE_IND000"
-1 106 -2.142857E+00 2.142857E+00 -3.571429E+00 -9.802248E+00 1.448490E+00 -3.571429E+00 1.639942E+01 -7.142860E-01
ZONE T = "DOE_IND000"
-1 107 -7.142857E-01 2.142857E+00 -3.571429E+00 -1.071257E+01 -3.424856E+00 -2.142857E+00 5.466472E+00 7.142860E-01
ZONE T = "DOE_IND000"
-1 108 7.142857E-01 2.142857E+00 -3.571429E+00 -1.071257E+01 1.393260E-01 -7.142860E-01 -5.466472E+00 2.142857E+00
ZONE T = "DOE_IND000"
-1 109 2.142857E+00 2.142857E+00 -3.571429E+00 -9.802248E+00 -2.582231E+00 7.142860E-01 -1.639942E+01 3.571429E+00
ZONE T = "DOE_IND000"
-1 110 3.571429E+00 2.142857E+00 -3.571429E+00 -8.694922E+00 5.361911E+00 2.142857E+00 -2.733236E+01 5.000000E+00
ZONE T = "DOE_IND000"
-1 111 5.000000E+00 2.142857E+00 -3.571429E+00 -7.716466E+00 -1.863076E+00 3.571429E+00 -3.826530E+01 6.428571E+00
ZONE T = "DOE_IND000"
-1 112 -5.000000E+00 3.571429E+00 -3.571429E+00 -6.567766E+00 1.224147E+01 -5.000000E+00 6.377551E+01 -5.000000E+00
ZONE T = "DOE_IND000"
-1 113 -3.571429E+00 3.571429E+00 -3.571429E+00 -7.283269E+00 3.306057E+00 -3.571429E+00 4.555394E+01 -3.571429E+00
ZONE T = "DOE_IND000"
-1 114 -2.142857E+00 3.571429E+00 -3.571429E+00 -7.989095E+00 9.392632E+00 -2.142857E+00 2.733236E+01 -2.142857E+00
ZONE T = "DOE_IND000"
-1 115 -7.142857E-01 3.571429E+00 -3.571429E+00 -8.468290E+00 4.519287E+00 -7.142860E-01 9.110787E+00 -7.142860E-01
ZONE T = "DOE_IND000"
-1 116 7.142857E-01 3.571429E+00 -3.571429E+00 -8.468290E+00 8.083469E+00 7.142860E-01 -9.110787E+00 7.142860E-01
ZONE T = "DOE_IND000"
-1 117 2.142857E+00 3.571429E+00 -3.571429E+00 -7.989095E+00 5.361911E+00 2.142857E+00 -2.733236E+01 2.142857E+00
ZONE T = "DOE_IND000"
-1 118 3.571429E+00 3.571429E+00 -3.571429E+00 -7.283269E+00 1.330605E+01 3.571429E+00 -4.555394E+01 3.571429E+00
ZONE T = "DOE_IND000"
-1 119 5.000000E+00 3.571429E+00 -3.571429E+00 -6.567766E+00 6.081066E+00 5.000000E+00 -6.377551E+01 5.000000E+00
ZONE T = "DOE_IND000"
-1 120 -5.000000E+00 5.000000E+00 -3.571429E+00 -5.357300E+00 5.016484E+00 -3.571429E+00 8.928571E+01 -6.428571E+00
ZONE T = "DOE_IND000"
-1 121 -3.571429E+00 5.000000E+00 -3.571429E+00 -5.852264E+00 -3.918930E+00 -2.142857E+00 6.377551E+01 -5.000000E+00
ZONE T = "DOE_IND000"
-1 122 -2.142857E+00 5.000000E+00 -3.571429E+00 -6.295137E+00 2.167645E+00 -7.142860E-01 3.826530E+01 -3.571429E+00
ZONE T = "DOE_IND000"
-1 123 -7.142857E-01 5.000000E+00 -3.571429E+00 -6.567766E+00 -2.705701E+00 7.142860E-01 1.275510E+01 -2.142857E+00
ZONE T = "DOE_IND000"
-1 124 7.142857E-01 5.000000E+00 -3.571429E+00 -6.567766E+00 8.584810E-01 2.142857E+00 -1.275510E+01 -7.142860E-01
ZONE T = "DOE_IND000"
-1 125 2.142857E+00 5.000000E+00 -3.571429E+00 -6.295137E+00 -1.863076E+00 3.571429E+00 -3.826530E+01 7.142860E-01
ZONE T = "DOE_IND000"
-1 126 3.571429E+00 5.000000E+00 -3.571429E+00 -5.852264E+00 6.081066E+00 5.000000E+00 -6.377551E+01 2.142857E+00
ZONE T = "DOE_IND000"
-1 127 5.000000E+00 5.000000E+00 -3.571429E+00 -5.357300E+00 -1.143921E+00 6.428571E+00 -8.928571E+01 3.571429E+00
ZONE T = "DOE_IND000"
-1 128 -5.000000E+00 -5.000000E+00 -2.142857E+00 -5.800173E+00 1.726346E+01 -1.214286E+01 -5.357143E+01 2.142857E+00
ZONE T = "DOE_IND000"
-1 129 -3.571429E+00 -5.000000E+00 -2.142857E+00 -6.295137E+00 8.328050E+00 -1.071429E+01 -3.826530E+01 3.571429E+00
ZONE T = "DOE_IND000"
-1 130 -2.142857E+00 -5.000000E+00 -2.142857E+00 -6.738010E+00 1.441462E+01 -9.285714E+00 -2.295918E+01 5.000000E+00
ZONE T = "DOE_IND000"
-1 131 -7.142857E-01 -5.000000E+00 -2.142857E+00 -7.010639E+00 9.541279E+00 -7.857143E+00 -7.653061E+00 6.428571E+00
ZONE T = "DOE_IND000"
-1 132 7.142857E-01 -5.000000E+00 -2.142857E+00 -7.010639E+00 1.310546E+01 -6.428571E+00 7.653061E+00 7.857143E+00
ZONE T = "DOE_IND000"
-1 133 2.142857E+00 -5.000000E+00 -2.142857E+00 -6.738010E+00 1.038390E+01 -5.000000E+00 2.295918E+01 9.285714E+00
ZONE T = "DOE_IND000"
-1 134 3.571429E+00 -5.000000E+00 -2.142857E+00 -6.295137E+00 1.832805E+01 -3.571429E+00 3.826530E+01 1.071429E+01
ZONE T = "DOE_IND000"
-1 135 5.000000E+00 -5.000000E+00 -2.142857E+00 -5.800173E+00 1.110306E+01 -2.142857E+00 5.357143E+01 1.214286E+01
ZONE T = "DOE_IND000"
-1 136 -5.000000E+00 -3.571429E+00 -2.142857E+00 -7.273593E+00 8.328050E+00 -1.071429E+01 -3.826530E+01 7.142860E-01
ZONE T = "DOE_IND000"
-1 137 -3.571429E+00 -3.571429E+00 -2.142857E+00 -7.989095E+00 -6.073640E-01 -9.285714E+00 -2.733236E+01 2.142857E+00
ZONE T = "DOE_IND000"
-1 138 -2.142857E+00 -3.571429E+00 -2.142857E+00 -8.694922E+00 5.479211E+00 -7.857143E+00 -1.639942E+01 3.571429E+00
ZONE T = "DOE_IND000"
-1 139 -7.142857E-01 -3.571429E+00 -2.142857E+00 -9.174116E+00 6.058650E-01 -6.428571E+00 -5.466472E+00 5.000000E+00
ZONE T = "DOE_IND000"
-1 140 7.142857E-01 -3.571429E+00 -2.142857E+00 -9.174116E+00 4.170047E+00 -5.000000E+00 5.466472E+00 6.428571E+00
ZONE T = "DOE_IND000"
-1 141 2.142857E+00 -3.571429E+00 -2.142857E+00 -8.694922E+00 1.448490E+00 -3.571429E+00 1.639942E+01 7.857143E+00
ZONE T = "DOE_IND000"
-1 142 3.571429E+00 -3.571429E+00 -2.142857E+00 -7.989095E+00 9.392632E+00 -2.142857E+00 2.733236E+01 9.285714E+00
ZONE T = "DOE_IND000"
-1 143 5.000000E+00 -3.571429E+00 -2.142857E+00 -7.273593E+00 2.167645E+00 -7.142860E-01 3.826530E+01 1.071429E+01
ZONE T = "DOE_IND000"
-1 144 -5.000000E+00 -2.142857E+00 -2.142857E+00 -8.823792E+00 1.441462E+01 -9.285714E+00 -2.295918E+01 -7.142860E-01
ZONE T = "DOE_IND000"
-1 145 -3.571429E+00 -2.142857E+00 -2.142857E+00 -9.802248E+00 5.479211E+00 -7.857143E+00 -1.639942E+01 7.142860E-01
ZONE T = "DOE_IND000"
-1 146 -2.142857E+00 -2.142857E+00 -2.142857E+00 -1.090957E+01 1.156579E+01 -6.428571E+00 -9.839649E+00 2.142857E+00
ZONE T = "DOE_IND000"
-1 147 -7.142857E-01 -2.142857E+00 -2.142857E+00 -1.181990E+01 6.692440E+00 -5.000000E+00 -3.279883E+00 3.571428E+00
ZONE T = "DOE_IND000"
-1 148 7.142857E-01 -2.142857E+00 -2.142857E+00 -1.181990E+01 1.025662E+01 -3.571428E+00 3.279883E+00 5.000000E+00
ZONE T = "DOE_IND000"
-1 149 2.142857E+00 -2.142857E+00 -2.142857E+00 -1.090957E+01 7.535065E+00 -2.142857E+00 9.839649E+00 6.428571E+00
ZONE T = "DOE_IND000"
-1 150 3.571429E+00 -2.142857E+00 -2.142857E+00 -9.802248E+00 1.547921E+01 -7.142860E-01 1.639942E+01 7.857143E+00
ZONE T = "DOE_IND000"
-1 151 5.000000E+00 -2.142857E+00 -2.142857E+00 -8.823792E+00 8.254220E+00 7.142860E-01 2.295918E+01 9.285714E+00
ZONE T = "DOE_IND000"
-1 152 -5.000000E+00 -7.142857E-01 -2.142857E+00 -1.000674E+01 9.541279E+00 -7.857143E+00 -7.653061E+00 -2.142857E+00
ZONE T = "DOE_IND000"
-1 153 -3.571429E+00 -7.142857E-01 -2.142857E+00 -1.119176E+01 6.058650E-01 -6.428571E+00 -5.466472E+00 -7.142860E-01
ZONE T = "DOE_IND000"
-1 154 -2.142857E+00 -7.142857E-01 -2.142857E+00 -1.273021E+01 6.692440E+00 -5.000000E+00 -3.279883E+00 7.142860E-01
ZONE T = "DOE_IND000"
-1 155 -7.142857E-01 -7.142857E-01 -2.142857E+00 -1.453581E+01 1.819095E+00 -3.571429E+00 -1.093294E+00 2.142857E+00
ZONE T = "DOE_IND000"
-1 156 7.142857E-01 -7.142857E-01 -2.142857E+00 -1.453581E+01 5.383277E+00 -2.142857E+00 1.093294E+00 3.571429E+00
ZONE T = "DOE_IND000"
-1 157 2.142857E+00 -7.142857E-01 -2.142857E+00 -1.273021E+01 2.661719E+00 -7.142860E-01 3.279883E+00 5.000000E+00
ZONE T = "DOE_IND000"
-1 158 3.571429E+00 -7.142857E-01 -2.142857E+00 -1.119176E+01 1.060586E+01 7.142860E-01 5.466472E+00 6.428571E+00
ZONE T = "DOE_IND000"
-1 159 5.000000E+00 -7.142857E-01 -2.142857E+00 -1.000674E+01 3.380874E+00 2.142857E+00 7.653061E+00 7.857143E+00
ZONE T = "DOE_IND000"
-1 160 -5.000000E+00 7.142857E-01 -2.142857E+00 -1.000674E+01 1.310546E+01 -6.428571E+00 7.653061E+00 -3.571429E+00
ZONE T = "DOE_IND000"
-1 161 -3.571429E+00 7.142857E-01 -2.142857E+00 -1.119176E+01 4.170047E+00 -5.000000E+00 5.466472E+00 -2.142857E+00
ZONE T = "DOE_IND000"
-1 162 -2.142857E+00 7.142857E-01 -2.142857E+00 -1.273021E+01 1.025662E+01 -3.571428E+00 3.279883E+00 -7.142860E-01
ZONE T = "DOE_IND000"
-1 163 -7.142857E-01 7.142857E-01 -2.142857E+00 -1.453581E+01 5.383277E+00 -2.142857E+00 1.093294E+00 7.142860E-01
ZONE T = "DOE_IND000"
-1 164 7.142857E-01 7.142857E-01 -2.142857E+00 -1.453581E+01 8.947459E+00 -7.142860E-01 -1.093294E+00 2.142857E+00
ZONE T = "DOE_IND000"
-1 165 2.142857E+00 7.142857E-01 -2.142857E+00 -1.273021E+01 6.225901E+00 7.142860E-01 -3.279883E+00 3.571428E+00
ZONE T = "DOE_IND000"
-1 166 3.571429E+00 7.142857E-01 -2.142857E+00 -1.119176E+01 1.417004E+01 2.142857E+00 -5.466472E+00 5.000000E+00
ZONE T = "DOE_IND000"
-1 167 5.000000E+00 7.142857E-01 -2.142857E+00 -1.000674E+01 6.945056E+00 3.571429E+00 -7.653061E+00 6.428571E+00
ZONE T = "DOE_IND000"
-1 168 -5.000000E+00 2.142857E+00 -2.142857E+00 -8.823792E+00 1.038390E+01 -5.000000E+00 2.295918E+01 -5.000000E+00
ZONE T = "DOE_IND000"
-1 169 -3.571429E+00 2.142857E+00 -2.142857E+00 -9.802248E+00 1.448490E+00 -3.571429E+00 1.639942E+01 -3.571429E+00
ZONE T = "DOE_IND000"
-1 170 -2.142857E+00 2.142857E+00 -2.142857E+00 -1.090957E+01 7.535065E+00 -2.142857E+00 9.839649E+00 -2.142857E+00
ZONE T = "DOE_IND000"
-1 171 -7.142857E-01 2.142857E+00 -2.142857E+00 -1.181990E+01 2.661719E+00 -7.142860E-01 3.279883E+00 -7.142860E-01
ZONE T = "DOE_IND000"
-1 172 7.142857E-01 2.142857E+00 -2.142857E+00 -1.181990E+01 6.225901E+00 7.142860E-01 -3.279883E+00 7.142860E-01
ZONE T = "DOE_IND000"
-1 173 2.142857E+00 2.142857E+00 -2.142857E+00 -1.090957E+01 3.504344E+00 2.142857E+00 -9.839649E+00 2.142857E+00
ZONE T = "DOE_IND000"
-1 174 3.571429E+00 2.142857E+00 -2.142857E+00 -9.802248E+00 1.144849E+01 3.571429E+00 -1.639942E+01 3.571429E+00
ZONE T = "DOE_IND000"
-1 175 5.000000E+00 2.142857E+00 -2.142857E+00 -8.823792E+00 4.223499E+00 5.000000E+00 -2.295918E+01 5.000000E+00
ZONE T = "DOE_IND000"
-1 176 -5.000000E+00 3.571429E+00 -2.142857E+00 -7.273593E+00 1.832805E+01 -3.571429E+00 3.826530E+01 -6.428571E+00
ZONE T = "DOE_IND000"
-1 177 -3.571429E+00 3.571429E+00 -2.142857E+00 -7.989095E+00 9.392632E+00 -2.142857E+00 2.733236E+01 -5.000000E+00
ZONE T = "DOE_IND000"
-1 178 -2.142857E+00 3.571429E+00 -2.142857E+00 -8.694922E+00 1.547921E+01 -7.142860E-01 1.639942E+01 -3.571429E+00
ZONE T = "DOE_IND000"
-1 179 -7.142857E-01 3.571429E+00 -2.142857E+00 -9.174116E+00 1.060586E+01 7.142860E-01 5.466472E+00 -2.142857E+00
ZONE T = "DOE_IND000"
-1 180 7.142857E-01 3.571429E+00 -2.142857E+00 -9.174116E+00 1.417004E+01 2.142857E+00 -5.466472E+00 -7.142860E-01
ZONE T = "DOE_IND000"
-1 181 2.142857E+00 3.571429E+00 -2.142857E+00 -8.694922E+00 1.144849E+01 3.571429E+00 -1.639942E+01 7.142860E-01
ZONE T = "DOE_IND000"
-1 182 3.571429E+00 3.571429E+00 -2.142857E+00 -7.989095E+00 1.939263E+01 5.000000E+00 -2.733236E+01 2.142857E+00
ZONE T = "DOE_IND000"
-1 183 5.000000E+00 3.571429E+00 -2.142857E+00 -7.273593E+00 1.216764E+01 6.428571E+00 -3.826530E+01 3.571429E+00
ZONE T = "DOE_IND000"
-1 184 -5.000000E+00 5.000000E+00 -2.142857E+00 -5.800173E+00 1.110306E+01 -2.142857E+00 5.357143E+01 -7.857143E+00
ZONE T = "DOE_IND000"
-1 185 -3.571429E+00 5.000000E+00 -2.142857E+00 -6.295137E+00 2.167645E+00 -7.142860E-01 3.826530E+01 -6.428571E+00
ZONE T = "DOE_IND000"
-1 186 -2.142857E+00 5.000000E+00 -2.142857E+00 -6.738010E+00 8.254220E+00 7.142860E-01 2.295918E+01 -5.000000E+00
ZONE T = "DOE_IND000"
-1 187 -7.142857E-01 5.000000E+00 -2.142857E+00 -7.010639E+00 3.380874E+00 2.142857E+00 7.653061E+00 -3.571429E+00
ZONE T = "DOE_IND000"
-1 188 7.142857E-01 5.000000E+00 -2.142857E+00 -7.010639E+00 6.945056E+00 3.571429E+00 -7.653061E+00 -2.142857E+00
ZONE T = "DOE_IND000"
-1 189 2.142857E+00 5.000000E+00 -2.142857E+00 -6.738010E+00 4.223499E+00 5.000000E+00 -2.295918E+01 -7.142860E-01
ZONE T = "DOE_IND000"
-1 190 3.571429E+00 5.000000E+00 -2.142857E+00 -6.295137E+00 1.216764E+01 6.428571E+00 -3.826530E+01 7.142860E-01
ZONE T = "DOE_IND000"
-1 191 5.000000E+00 5.000000E+00 -2.142857E+00 -5.800173E+00 4.942654E+00 7.857143E+00 -5.357143E+01 2.142857E+00
ZONE T = "DOE_IND000"
-1 192 -5.000000E+00 -5.000000E+00 -7.142857E-01 -6.072802E+00 1.239012E+01 -1.071429E+01 -1.785714E+01 7.142860E-01
ZONE T = "DOE_IND000"
-1 193 -3.571429E+00 -5.000000E+00 -7.142857E-01 -6.567766E+00 3.454704E+00 -9.285714E+00 -1.275510E+01 2.142857E+00
ZONE T = "DOE_IND000"
-1 194 -2.142857E+00 -5.000000E+00 -7.142857E-01 -7.010639E+00 9.541279E+00 -7.857143E+00 -7.653061E+00 3.571429E+00
ZONE T = "DOE_IND000"
-1 195 -7.142857E-01 -5.000000E+00 -7.142857E-01 -7.283268E+00 4.667933E+00 -6.428571E+00 -2.551021E+00 5.000000E+00
ZONE T = "DOE_IND000"
-1 196 7.142857E-01 -5.000000E+00 -7.142857E-01 -7.283268E+00 8.232115E+00 -5.000000E+00 2.551021E+00 6.428571E+00
ZONE T = "DOE_IND000"
-1 197 2.142857E+00 -5.000000E+00 -7.142857E-01 -7.010639E+00 5.510558E+00 -3.571429E+00 7.653061E+00 7.857143E+00
ZONE T = "DOE_IND000"
-1 198 3.571429E+00 -5.000000E+00 -7.142857E-01 -6.567766E+00 1.345470E+01 -2.142857E+00 1.275510E+01 9.285714E+00
ZONE T = "DOE_IND000"
-1 199 5.000000E+00 -5.000000E+00 -7.142857E-01 -6.072802E+00 6.229713E+00 -7.142860E-01 1.785714E+01 1.071429E+01
ZONE T = "DOE_IND000"
-1 200 -5.000000E+00 -3.571429E+00 -7.142857E-01 -7.752787E+00 3.454704E+00 -9.285714E+00 -1.275510E+01 -7.142860E-01
ZONE T = "DOE_IND000"
-1 201 -3.571429E+00 -3.571429E+00 -7.142857E-01 -8.468290E+00 -5.480710E+00 -7.857143E+00 -9.110787E+00 7.142860E-01
ZONE T = "DOE_IND000"
-1 202 -2.142857E+00 -3.571429E+00 -7.142857E-01 -9.174116E+00 6.058650E-01 -6.428571E+00 -5.466472E+00 2.142857E+00
ZONE T = "DOE_IND000"
-1 203 -7.142857E-01 -3.571429E+00 -7.142857E-01 -9.653311E+00 -4.267480E+00 -5.000000E+00 -1.822158E+00 3.571429E+00
ZONE T = "DOE_IND000"
-1 204 7.142857E-01 -3.571429E+00 -7.142857E-01 -9.653311E+00 -7.032980E-01 -3.571429E+00 1.822158E+00 5.000000E+00
ZONE T = "DOE_IND000"
-1 205 2.142857E+00 -3.571429E+00 -7.142857E-01 -9.174116E+00 -3.424856E+00 -2.142857E+00 5.466472E+00 6.428571E+00
ZONE T = "DOE_IND000"
-1 206 3.571429E+00 -3.571429E+00 -7.142857E-01 -8.468290E+00 4.519287E+00 -7.142860E-01 9.110787E+00 7.857143E+00
ZONE T = "DOE_IND000"
-1 207 5.000000E+00 -3.571429E+00 -7.142857E-01 -7.752787E+00 -2.705701E+00 7.142860E-01 1.275510E+01 9.285714E+00
ZONE T = "DOE_IND000"
-1 208 -5.000000E+00 -2.142857E+00 -7.142857E-01 -9.734113E+00 9.541279E+00 -7.857143E+00 -7.653061E+00 -2.142857E+00
ZONE T = "DOE_IND000"
-1 209 -3.571429E+00 -2.142857E+00 -7.142857E-01 -1.071257E+01 6.058650E-01 -6.428571E+00 -5.466472E+00 -7.142860E-01
ZONE T = "DOE_IND000"
-1 210 -2.142857E+00 -2.142857E+00 -7.142857E-01 -1.181990E+01 6.692440E+00 -5.000000E+00 -3.279883E+00 7.142860E-01
ZONE T = "DOE_IND000"
-1 211 -7.142857E-01 -2.142857E+00 -7.142857E-01 -1.273021E+01 1.819095E+00 -3.571429E+00 -1.093294E+00 2.142857E+00
ZONE T = "DOE_IND000"
-1 212 7.142857E-01 -2.142857E+00 -7.142857E-01 -1.273021E+01 5.383277E+00 -2.142857E+00 1.093294E+00 3.571429E+00
ZONE T = "DOE_IND000"
-1 213 2.142857E+00 -2.142857E+00 -7.142857E-01 -1.181990E+01 2.661719E+00 -7.142860E-01 3.279883E+00 5.000000E+00
ZONE T = "DOE_IND000"
-1 214 3.571429E+00 -2.142857E+00 -7.142857E-01 -1.071257E+01 1.060586E+01 7.142860E-01 5.466472E+00 6.428571E+00
ZONE T = "DOE_IND000"
-1 215 5.000000E+00 -2.142857E+00 -7.142857E-01 -9.734113E+00 3.380874E+00 2.142857E+00 7.653061E+00 7.857143E+00
ZONE T = "DOE_IND000"
-1 216 -5.000000E+00 -7.142857E-01 -7.142857E-01 -1.181233E+01 4.667933E+00 -6.428571E+00 -2.551021E+00 -3.571429E+00
ZONE T = "DOE_IND000"