VARIABLES = "population","individual","x1","x2","x3","objective1","objective2","p1","p2","p3"
ZONE T = "DOE_IND000"
-1 000 -2.559055E+00 3.110236E+00 -2.637795E+00 -8.892051E+00 8.635500E+00 -2.086614E+00 2.099491E+01 -3.031496E+00
ZONE T = "DOE_IND000"
-1 001 -1.968504E-01 3.937008E-02 -2.165354E+00 -1.609114E+01 5.492220E+00 -2.322835E+00 1.678200E-02 1.929134E+00
ZONE T = "DOE_IND000"
-1 002 -1.771654E+00 -1.299213E+00 1.456693E+00 -1.321226E+01 3.659885E+00 -1.614173E+00 3.352950E+00 -1.929134E+00
ZONE T = "DOE_IND000"
-1 003 3.740157E+00 2.480315E+00 4.606299E+00 -7.587851E+00 1.323110E+01 1.082677E+01 4.273157E+01 -3.346457E+00
ZONE T = "DOE_IND000"
-1 004 -4.448819E+00 -1.220472E+00 -1.299213E+00 -1.097584E+01 -3.636017E+00 -6.968504E+00 -7.054284E+00 -1.929134E+00
ZONE T = "DOE_IND000"
-1 005 1.771654E+00 -1.062992E+00 -4.527559E+00 -1.056019E+01 2.965533E+00 -3.818898E+00 8.526543E+00 7.362205E+00
ZONE T = "DOE_IND000"
-1 006 4.842520E+00 2.874016E+00 1.968504E-01 -8.863109E+00 3.466839E+00 7.913386E+00 2.739661E+00 1.771654E+00
ZONE T = "DOE_IND000"
-1 007 -2.244094E+00 2.401575E+00 -4.921260E+00 -8.526843E+00 1.802976E+01 -4.763780E+00 2.652245E+01 2.755910E-01
ZONE T = "DOE_IND000"
-1 008 3.818898E+00 -2.401575E+00 -2.401575E+00 -9.126424E+00 -6.411110E+00 -9.842520E-01 2.202573E+01 8.622047E+00
ZONE T = "DOE_IND000"
-1 009 -3.031496E+00 -2.165354E+00 1.141732E+00 -1.087576E+01 1.168984E+01 -4.055118E+00 7.494631E+00 -2.007874E+00
ZONE T = "DOE_IND000"
-1 010 -2.165354E+00 3.740157E+00 3.346457E+00 -7.878299E+00 1.400400E+01 4.921260E+00 -2.710217E+01 -9.251969E+00
ZONE T = "DOE_IND000"
-1 011 2.007874E+00 1.929134E+00 -1.535433E+00 -1.183709E+01 1.590906E+01 2.401575E+00 -5.947435E+00 1.614173E+00
ZONE T = "DOE_IND000"
-1 012 3.543307E-01 3.818898E+00 3.543307E-01 -9.287526E+00 4.685360E-01 4.527559E+00 4.794640E-01 -3.818898E+00
ZONE T = "DOE_IND000"
-1 013 -3.897638E+00 -4.448819E+00 4.527559E+00 -5.873492E+00 1.925177E+00 -3.818898E+00 7.850735E+01 -3.976378E+00
ZONE T = "DOE_IND000"
-1 014 -1.850394E+00 2.952756E+00 -3.740157E+00 -8.836768E+00 5.069779E+00 -2.637795E+00 2.043533E+01 -1.062992E+00
ZONE T = "DOE_IND000"
-1 015 1.692913E+00 -2.559055E+00 3.267717E+00 -9.773662E+00 3.966205E+00 2.401575E+00 -1.415659E+01 9.842520E-01
ZONE T = "DOE_IND000"
-1 016 -4.842520E+00 2.086614E+00 2.559055E+00 -8.649877E+00 2.562954E+00 -1.968500E-01 -2.585790E+01 -9.488189E+00
ZONE T = "DOE_IND000"
-1 017 4.685039E+00 -3.346457E+00 4.370079E+00 -6.487553E+00 1.903803E+01 5.708661E+00 -6.851532E+01 3.661417E+00
ZONE T = "DOE_IND000"
-1 018 4.527559E+00 1.968504E-01 -4.448819E+00 -8.143845E+00 1.570950E+00 2.755910E-01 -3.965018E+00 8.779528E+00
ZONE T = "DOE_IND000"
-1 019 1.062992E+00 4.370079E+00 -4.606299E+00 -6.876349E+00 1.895505E+01 8.267720E-01 -2.139792E+01 1.299213E+00
ZONE T = "DOE_IND000"
-1 020 -1.929134E+00 -1.456693E+00 1.929134E+00 -1.233283E+01 4.481584E+00 -1.456693E+00 5.421166E+00 -2.401575E+00
ZONE T = "DOE_IND000"
-1 021 -1.377953E+00 9.055118E-01 -3.267717E+00 -1.226633E+01 7.312499E+00 -3.740157E+00 4.077301E+00 9.842520E-01
ZONE T = "DOE_IND000"
-1 022 -5.000000E+00 -2.086614E+00 4.212598E+00 -7.289252E+00 7.006644E+00 -2.874016E+00 4.395034E+01 -7.125984E+00
ZONE T = "DOE_IND000"
-1 023 -1.062992E+00 3.503937E+00 -2.559055E+00 -9.006694E+00 1.471060E+00 -1.181100E-01 9.531604E+00 -2.007874E+00
ZONE T = "DOE_IND000"
-1 024 -4.330709E-01 2.716535E+00 -4.763780E+00 -9.107977E+00 5.663755E+00 -2.480315E+00 5.604360E+00 1.614173E+00
ZONE T = "DOE_IND000"
-1 025 -5.118110E-01 4.330709E-01 -6.692913E-01 -1.727136E+01 8.304400E-02 -7.480310E-01 1.483490E-01 -2.755910E-01
ZONE T = "DOE_IND000"
-1 026 -2.795276E+00 -2.480315E+00 4.330709E-01 -1.077962E+01 2.343107E+00 -4.842520E+00 3.002551E+00 -7.480310E-01
ZONE T = "DOE_IND000"
-1 027 -3.661417E+00 -1.377953E+00 5.905512E-01 -1.198237E+01 7.912649E+00 -4.448819E+00 2.979484E+00 -2.874016E+00
ZONE T = "DOE_IND000"
-1 028 -1.299213E+00 -5.000000E+00 6.692913E-01 -7.204765E+00 6.076046E+00 -5.629921E+00 4.347759E+00 3.031496E+00
ZONE T = "DOE_IND000"
-1 029 3.425197E+00 -4.527559E+00 -2.322835E+00 -6.826943E+00 1.616172E+01 -3.425197E+00 3.602201E+01 1.027559E+01
ZONE T = "DOE_IND000"
-1 030 -2.322835E+00 -3.188976E+00 1.062992E+00 -9.648100E+00 6.124201E+00 -4.448819E+00 7.874077E+00 -1.968500E-01
ZONE T = "DOE_IND000"
-1 031 2.716535E+00 -1.181102E-01 -9.055118E-01 -1.413597E+01 4.595592E+00 1.692913E+00 2.905340E-01 3.740157E+00
ZONE T = "DOE_IND000"
-1 032 -3.976378E+00 3.267717E+00 1.220472E+00 -8.549943E+00 9.767670E+00 5.118110E-01 -1.585842E+01 -8.464567E+00
ZONE T = "DOE_IND000"
-1 033 -3.346457E+00 5.000000E+00 1.535433E+00 -6.515085E+00 3.385271E+00 3.188976E+00 -2.569130E+01 -9.881890E+00
ZONE T = "DOE_IND000"
-1 034 2.637795E+00 2.165354E+00 -1.456693E+00 -1.098693E+01 -5.796110E-01 3.346457E+00 -8.320282E+00 1.929134E+00
ZONE T = "DOE_IND000"
-1 035 3.031496E+00 2.244094E+00 4.133858E+00 -8.606576E+00 9.692724E+00 9.409449E+00 2.812249E+01 -3.346457E+00
ZONE T = "DOE_IND000"
-1 036 4.448819E+00 1.850394E+00 2.007874E+00 -9.607014E+00 1.223263E+01 8.307087E+00 1.652895E+01 5.905510E-01
ZONE T = "DOE_IND000"
-1 037 -3.188976E+00 1.614173E+00 7.480315E-01 -1.189870E+01 -1.797809E+00 -8.267720E-01 -3.850537E+00 -5.551181E+00
ZONE T = "DOE_IND000"
-1 038 -4.606299E+00 -7.480315E-01 3.897638E+00 -8.453870E+00 9.128498E+00 -1.456693E+00 1.342992E+01 -7.755906E+00
ZONE T = "DOE_IND000"
-1 039 -4.291339E+00 -3.937008E-02 -2.716535E+00 -1.004672E+01 3.193805E+00 -7.047244E+00 -4.589600E-01 -1.535433E+00
ZONE T = "DOE_IND000"
-1 040 -9.055118E-01 -3.976378E+00 -8.267717E-01 -8.862013E+00 -1.463443E+00 -5.708661E+00 -2.976921E+00 3.897638E+00
ZONE T = "DOE_IND000"
-1 041 1.181102E-01 -9.842520E-01 1.377953E+00 -1.532869E+01 8.987630E-01 5.118110E-01 -1.601870E-01 -2.755910E-01
ZONE T = "DOE_IND000"
-1 042 -1.692913E+00 -1.692913E+00 -1.181102E-01 -1.331702E+01 1.312324E+01 -3.503937E+00 -3.384990E-01 1.181100E-01
ZONE T = "DOE_IND000"
-1 043 2.086614E+00 -4.370079E+00 -4.330709E-01 -7.951284E+00 1.932984E+00 -2.716535E+00 3.949030E+00 6.889764E+00
ZONE T = "DOE_IND000"
-1 044 -8.267717E-01 -4.685039E+00 4.921260E+00 -6.430980E+00 5.218320E-01 -5.905510E-01 1.906229E+01 -1.062992E+00
ZONE T = "DOE_IND000"
-1 045 4.763780E+00 -3.740157E+00 2.480315E+00 -7.053634E+00 1.098110E+01 3.503937E+00 -4.419248E+01 6.023622E+00
ZONE T = "DOE_IND000"
-1 046 3.897638E+00 2.755906E-01 -3.031496E+00 -1.001735E+01 6.147435E+00 1.141732E+00 -3.256288E+00 6.653543E+00
ZONE T = "DOE_IND000"
-1 047 -1.535433E+00 4.055118E+00 9.842520E-01 -8.541805E+00 8.585092E+00 3.503937E+00 -6.128310E+00 -6.574803E+00
ZONE T = "DOE_IND000"
-1 048 -3.425197E+00 2.007874E+00 2.795276E+00 -9.544150E+00 9.251966E+00 1.377953E+00 -1.922413E+01 -8.228346E+00
ZONE T = "DOE_IND000"
-1 049 -3.110236E+00 1.692913E+00 1.614173E+00 -1.118881E+01 1.000065E+00 1.968500E-01 -8.499204E+00 -6.417323E+00
ZONE T = "DOE_IND000"
-1 050 8.267717E-01 -4.763780E+00 2.637795E+00 -7.167536E+00 2.007957E+00 -1.299213E+00 -1.038911E+01 2.952756E+00
ZONE T = "DOE_IND000"
-1 051 9.055118E-01 -5.118110E-01 2.086614E+00 -1.462892E+01 7.688480E+00 2.480315E+00 -9.670430E-01 -6.692910E-01
ZONE T = "DOE_IND000"
-1 052 -3.937008E-02 2.559055E+00 -3.582677E+00 -1.013926E+01 -3.906980E+00 -1.062992E+00 3.609550E-01 9.842520E-01
ZONE T = "DOE_IND000"
-1 053 1.377953E+00 4.448819E+00 -3.818898E+00 -7.035302E+00 1.422181E+01 2.007874E+00 -2.341084E+01 7.480310E-01
ZONE T = "DOE_IND000"
-1 054 -2.874016E+00 1.141732E+00 2.401575E+00 -1.126281E+01 2.015598E+01 6.692910E-01 -7.880423E+00 -6.417323E+00
ZONE T = "DOE_IND000"
-1 055 4.370079E+00 -2.716535E+00 -4.685039E+00 -6.958565E+00 5.441536E+00 -3.031496E+00 5.561832E+01 1.177165E+01
ZONE T = "DOE_IND000"
-1 056 -5.905512E-01 -4.842520E+00 -3.110236E+00 -6.932371E+00 8.280499E+00 -8.543307E+00 -8.894516E+00 7.362205E+00
ZONE T = "DOE_IND000"
-1 057 4.606299E+00 7.480315E-01 4.055118E+00 -8.316062E+00 4.328134E+00 9.409449E+00 1.397255E+01 -1.968500E-01
ZONE T = "DOE_IND000"
-1 058 -3.740157E+00 4.606299E+00 4.448819E+00 -5.830454E+00 3.872173E+00 5.314961E+00 -7.664552E+01 -1.279528E+01
ZONE T = "DOE_IND000"
-1 059 -6.692913E-01 -1.535433E+00 8.267717E-01 -1.420895E+01 6.495553E+00 -1.377953E+00 8.496340E-01 3.937000E-02
ZONE T = "DOE_IND000"
-1 060 -2.401575E+00 3.976378E+00 3.582677E+00 -7.377725E+00 7.755468E+00 5.157480E+00 -3.421302E+01 -9.960630E+00
ZONE T = "DOE_IND000"
-1 061 9.842520E-01 -4.212598E+00 2.755906E-01 -8.508121E+00 1.167757E+01 -2.952756E+00 -1.142670E+00 4.921260E+00
ZONE T = "DOE_IND000"
-1 062 -2.755906E-01 -3.267717E+00 -1.141732E+00 -1.019424E+01 6.036590E-01 -4.685039E+00 -1.028189E+00 4.133858E+00
ZONE T = "DOE_IND000"
-1 063 -3.267717E+00 5.118110E-01 3.188976E+00 -1.040231E+01 1.225150E+01 4.330710E-01 -5.333414E+00 -6.968504E+00
ZONE T = "DOE_IND000"
-1 064 -3.503937E+00 -4.606299E+00 3.976378E+00 -6.103744E+00 1.514601E+01 -4.133858E+00 6.417946E+01 -2.874016E+00
ZONE T = "DOE_IND000"
-1 065 2.322835E+00 1.456693E+00 1.299213E+00 -1.254696E+01 8.695373E+00 5.078740E+00 4.396090E+00 -4.330710E-01
ZONE T = "DOE_IND000"
-1 066 1.220472E+00 -3.503937E+00 -4.133858E+00 -8.144243E+00 1.096756E+01 -6.417323E+00 1.767827E+01 8.858268E+00
ZONE T = "DOE_IND000"
-1 067 4.212598E+00 -4.330709E-01 -4.212598E+00 -8.574324E+00 6.425622E+00 -4.330710E-01 7.685269E+00 8.858268E+00
ZONE T = "DOE_IND000"
-1 068 -2.480315E+00 -3.543307E-01 3.661417E+00 -1.085032E+01 -1.688926E+00 8.267720E-01 3.217843E+00 -5.787402E+00
ZONE T = "DOE_IND000"
-1 069 5.000000E+00 -3.818898E+00 -5.000000E+00 -5.682642E+00 1.393831E+01 -3.818898E+00 9.547244E+01 1.381890E+01
ZONE T = "DOE_IND000"
-1 070 2.244094E+00 3.543307E-01 -1.692913E+00 -1.342412E+01 4.274387E+00 9.055120E-01 -1.346123E+00 3.582677E+00
ZONE T = "DOE_IND000"
-1 071 1.141732E+00 4.842520E+00 -3.897638E+00 -6.581478E+00 1.251055E+01 2.086614E+00 -2.154950E+01 1.968500E-01
ZONE T = "DOE_IND000"
-1 072 -4.370079E+00 3.188976E+00 2.952756E+00 -7.582038E+00 1.038338E+01 1.771654E+00 -4.114984E+01 -1.051181E+01
ZONE T = "DOE_IND000"
-1 073 2.401575E+00 8.267717E-01 -1.220472E+00 -1.346368E+01 6.673804E+00 2.007874E+00 -2.423314E+00 2.795276E+00
ZONE T = "DOE_IND000"
-1 074 1.299213E+00 -4.133858E+00 -7.480315E-01 -8.519853E+00 2.173403E+00 -3.582677E+00 4.017498E+00 6.181102E+00
ZONE T = "DOE_IND000"
-1 075 -4.212598E+00 5.905512E-01 -1.771654E+00 -1.115414E+01 1.271645E+01 -5.393701E+00 4.407440E+00 -3.031496E+00
ZONE T = "DOE_IND000"
-1 076 3.110236E+00 -1.850394E+00 3.110236E+00 -9.698024E+00 -3.377379E+00 4.370079E+00 -1.789991E+01 1.850394E+00
ZONE T = "DOE_IND000"
-1 077 4.291339E+00 -1.968504E-01 3.503937E+00 -9.191598E+00 -2.780640E-01 7.598425E+00 -2.959957E+00 9.842520E-01
ZONE T = "DOE_IND000"
-1 078 -9.842520E-01 -2.322835E+00 -4.842520E+00 -9.453603E+00 3.532660E-01 -8.149606E+00 -1.107123E+01 6.181102E+00
ZONE T = "DOE_IND000"
-1 079 -4.921260E+00 -8.267717E-01 -1.614173E+00 -1.064382E+01 8.559733E+00 -7.362205E+00 -6.567680E+00 -2.480315E+00
ZONE T = "DOE_IND000"
-1 080 -3.543307E-01 6.692913E-01 2.716535E+00 -1.430916E+01 9.295303E+00 3.031496E+00 -6.442280E-01 -3.740157E+00
ZONE T = "DOE_IND000"
-1 081 3.188976E+00 -2.755906E-01 -1.062992E+00 -1.330020E+01 3.414987E+00 1.850394E+00 9.342120E-01 4.527559E+00
ZONE T = "DOE_IND000"
-1 082 3.661417E+00 4.763780E+00 5.000000E+00 -5.519692E+00 7.038635E+00 1.342520E+01 8.721092E+01 -6.102362E+00
ZONE T = "DOE_IND000"
-1 083 -4.527559E+00 1.377953E+00 -3.425197E+00 -8.659686E+00 1.172907E+01 -6.574803E+00 2.136899E+01 -2.480315E+00
ZONE T = "DOE_IND000"
-1 084 -7.480315E-01 -1.141732E+00 -5.905512E-01 -1.534403E+01 -5.476977E+00 -2.480315E+00 -5.043610E-01 9.842520E-01
ZONE T = "DOE_IND000"
-1 085 2.952756E+00 1.771654E+00 -2.480315E+00 -1.045792E+01 3.420400E+00 2.244094E+00 -1.297517E+01 3.661417E+00
ZONE T = "DOE_IND000"
-1 086 7.480315E-01 -2.007874E+00 -1.968504E-01 -1.319439E+01 -4.975200E-02 -1.456693E+00 2.956600E-01 2.952756E+00
ZONE T = "DOE_IND000"
-1 087 4.055118E+00 -2.795276E+00 -2.244094E+00 -8.616761E+00 8.015714E+00 -9.842520E-01 2.543720E+01 9.094488E+00
ZONE T = "DOE_IND000"
-1 088 -1.181102E-01 3.425197E+00 -2.874016E+00 -9.127806E+00 1.315029E+01 4.330710E-01 1.162685E+00 -6.692910E-01
ZONE T = "DOE_IND000"
-1 089 5.118110E-01 2.795276E+00 2.244094E+00 -1.054711E+01 1.417709E+00 5.551181E+00 3.210520E+00 -4.527559E+00
ZONE T = "DOE_IND000"
-1 090 2.874016E+00 -1.929134E+00 3.031496E+00 -9.878391E+00 -3.635440E-01 3.976378E+00 -1.680771E+01 1.771654E+00
ZONE T = "DOE_IND000"
-1 091 1.535433E+00 -1.771654E+00 1.850394E+00 -1.224783E+01 5.892487E+00 1.614173E+00 -5.033544E+00 1.456693E+00
ZONE T = "DOE_IND000"
-1 092 1.456693E+00 3.661417E+00 -3.661417E+00 -8.097149E+00 7.252510E+00 1.456693E+00 -1.952839E+01 1.456693E+00
ZONE T = "DOE_IND000"
-1 093 3.346457E+00 9.842520E-01 -2.755906E-01 -1.312878E+01 6.839519E+00 4.055118E+00 -9.077280E-01 2.637795E+00
ZONE T = "DOE_IND000"
-1 094 4.330709E-01 -6.692913E-01 -3.937008E-02 -1.727136E+01 2.410860E-01 -2.755910E-01 1.141100E-02 1.141732E+00
ZONE T = "DOE_IND000"
-1 095 3.503937E+00 -2.244094E+00 3.740157E+00 -8.530644E+00 1.259989E+01 5.000000E+00 -2.940948E+01 2.007874E+00
ZONE T = "DOE_IND000"
-1 096 -2.952756E+00 4.291339E+00 -3.188976E+00 -6.960626E+00 -1.346920E+00 -1.850394E+00 4.040840E+01 -4.055118E+00
ZONE T = "DOE_IND000"
-1 097 3.582677E+00 -5.905512E-01 -4.291339E+00 -9.042223E+00 1.249844E+01 -1.299213E+00 9.079418E+00 8.464567E+00
ZONE T = "DOE_IND000"
-1 098 -3.818898E+00 4.685039E+00 3.425197E+00 -6.117990E+00 1.957553E+01 4.291339E+00 -6.128255E+01 -1.192913E+01
ZONE T = "DOE_IND000"
-1 099 -2.637795E+00 -2.952756E+00 2.322835E+00 -9.247085E+00 5.854074E+00 -3.267717E+00 1.809201E+01 -2.007874E+00
ZONE T = "DOE_IND000"
-1 100 -1.614173E+00 -3.425197E+00 3.818898E+00 -8.273760E+00 4.616896E+00 -1.220472E+00 2.111415E+01 -2.007874E+00
ZONE T = "DOE_IND000"
-1 101 3.937008E-02 2.637795E+00 9.055118E-01 -1.162488E+01 4.173402E+00 3.582677E+00 9.403800E-02 -3.503937E+00
ZONE T = "DOE_IND000"
-1 102 2.480315E+00 3.346457E+00 -2.952756E+00 -8.443035E+00 5.268981E+00 2.874016E+00 -2.450866E+01 2.086614E+00
ZONE T = "DOE_IND000"
-1 103 -2.007874E+00 -3.897638E+00 -3.543307E-01 -8.732281E+00 -2.230548E+00 -6.259843E+00 -2.772980E+00 2.244094E+00
ZONE T = "DOE_IND000"
-1 104 2.165354E+00 3.031496E+00 -2.795276E+00 -9.130582E+00 4.500811E+00 2.401575E+00 -1.834892E+01 1.929134E+00
ZONE T = "DOE_IND000"
-1 105 2.795276E+00 3.897638E+00 5.118110E-01 -8.387349E+00 9.550523E+00 7.204724E+00 5.576167E+00 -1.614173E+00
ZONE T = "DOE_IND000"
-1 106 2.755906E-01 -2.874016E+00 4.763780E+00 -8.899980E+00 1.600461E+01 2.165354E+00 -3.773159E+00 -1.614173E+00
ZONE T = "DOE_IND000"
-1 107 -1.141732E+00 4.527559E+00 1.181102E-01 -7.972442E+00 -5.290731E+00 3.503937E+00 -6.105430E-01 -5.787402E+00
ZONE T = "DOE_IND000"
-1 108 6.692913E-01 -3.582677E+00 -1.929134E+00 -9.255910E+00 -1.774939E+00 -4.842520E+00 4.625783E+00 6.181102E+00
ZONE T = "DOE_IND000"
-1 109 -3.582677E+00 -2.637795E+00 -1.377953E+00 -9.621881E+00 1.573430E+00 -7.598425E+00 -1.302216E+01 4.330710E-01
ZONE T = "DOE_IND000"
-1 110 3.976378E+00 -4.291339E+00 -4.055118E+00 -6.173629E+00 1.509131E+01 -4.370079E+00 6.919647E+01 1.232283E+01
ZONE T = "DOE_IND000"
-1 111 1.850394E+00 4.921260E+00 -5.118110E-01 -7.211436E+00 4.431833E+00 6.259843E+00 -4.660688E+00 -2.559055E+00
ZONE T = "DOE_IND000"
-1 112 -1.456693E+00 -4.921260E+00 -3.503937E+00 -6.569925E+00 1.246791E+01 -9.881890E+00 -2.511890E+01 6.968504E+00
ZONE T = "DOE_IND000"
-1 113 1.968504E-01 -3.661417E+00 3.937008E-02 -9.610911E+00 7.834634E+00 -3.425197E+00 -2.837600E-02 3.818898E+00
ZONE T = "DOE_IND000"
-1 114 2.559055E+00 -9.055118E-01 -1.850394E+00 -1.243371E+01 -3.301282E+00 -1.968500E-01 4.287833E+00 5.314961E+00
ZONE T = "DOE_IND000"
-1 115 -4.763780E+00 1.299213E+00 2.874016E+00 -9.046493E+00 1.379055E+00 -5.905510E-01 -1.778775E+01 -8.937008E+00
ZONE T = "DOE_IND000"
-1 116 4.921260E+00 4.133858E+00 2.165354E+00 -6.697772E+00 9.252519E+00 1.122047E+01 4.405152E+01 -1.377953E+00
ZONE T = "DOE_IND000"
-1 117 1.614173E+00 1.181102E-01 1.771654E+00 -1.424560E+01 -4.441756E+00 3.503937E+00 3.377660E-01 -2.755910E-01
ZONE T = "DOE_IND000"
-1 118 -2.086614E+00 -3.110236E+00 -9.842520E-01 -9.935751E+00 4.378207E+00 -6.181102E+00 -6.387660E+00 2.007874E+00
ZONE T = "DOE_IND000"
-1 119 1.929134E+00 1.535433E+00 4.842520E+00 -9.727517E+00 1.045521E+01 8.307087E+00 1.434381E+01 -4.448819E+00
ZONE T = "DOE_IND000"
-1 120 -2.716535E+00 -1.614173E+00 -2.007874E+00 -1.128886E+01 2.988910E-01 -6.338583E+00 -8.804445E+00 9.055120E-01
ZONE T = "DOE_IND000"
-1 121 -1.220472E+00 3.582677E+00 4.291339E+00 -7.960002E+00 4.503564E+00 6.653543E+00 -1.876413E+01 -9.094488E+00
ZONE T = "DOE_IND000"
-1 122 -4.133858E+00 4.212598E+00 -2.086614E+00 -6.976950E+00 -1.580465E+00 -2.007874E+00 3.633689E+01 -6.259843E+00
ZONE T = "DOE_IND000"
-1 123 -4.055118E+00 1.220472E+00 -4.370079E+00 -8.322637E+00 1.069972E+01 -7.204724E+00 2.162822E+01 -9.055120E-01
ZONE T = "DOE_IND000"
-1 124 5.905512E-01 2.322835E+00 4.685039E+00 -9.705806E+00 1.063046E+01 7.598425E+00 6.426716E+00 -6.417323E+00
ZONE T = "DOE_IND000"
-1 125 -4.685039E+00 -4.055118E+00 -3.346457E+00 -6.390047E+00 9.777255E+00 -1.208661E+01 -6.357728E+01 2.716535E+00
ZONE T = "DOE_IND000"
-1 126 4.133858E+00 1.062992E+00 1.692913E+00 -1.096307E+01 1.039223E+01 6.889764E+00 7.439100E+00 1.377953E+00
ZONE T = "DOE_IND000"
-1 127 3.267717E+00 -3.031496E+00 -3.976378E+00 -7.779208E+00 4.159389E+00 -3.740157E+00 3.939028E+01 1.027559E+01
ZONE T = "POP000_IND000"
000 000 -5.000000E+00 5.000000E+00 -5.000000E+00 -4.862335E+00 1.395190E+01 -5.000000E+00 1.250000E+02 -5.000000E+00
ZONE T = "POP000_IND000"
000 001 -5.000000E+00 5.000000E+00 -5.000000E+00 -4.862335E+00 1.395190E+01 -5.000000E+00 1.250000E+02 -5.000000E+00
ZONE T = "POP000_IND000"
000 002 -5.000000E+00 5.000000E+00 -5.000000E+00 -4.862335E+00 1.395190E+01 -5.000000E+00 1.250000E+02 -5.000000E+00
ZONE T = "POP000_IND000"
000 003 -5.000000E+00 5.000000E+00 -5.000000E+00 -4.862335E+00 1.395190E+01 -5.000000E+00 1.250000E+02 -5.000000E+00
ZONE T = "POP000_IND000"
000 004 -5.000000E+00 5.000000E+00 -5.000000E+00 -4.862335E+00 1.395190E+01 -5.000000E+00 1.250000E+02 -5.000000E+00
ZONE T = "POP000_IND000"
000 005 -5.000000E+00 5.000000E+00 -5.000000E+00 -4.862335E+00 1.395190E+01 -5.000000E+00 1.250000E+02 -5.000000E+00
ZONE T = "POP000_IND000"
000 006 -5.000000E+00 5.000000E+00 -5.000000E+00 -4.862335E+00 1.395190E+01 -5.000000E+00 1.250000E+02 -5.000000E+00
ZONE T = "POP000_IND000"
000 007 -5.000000E+00 5.000000E+00 -5.000000E+00 -4.862335E+00 1.395190E+01 -5.000000E+00 1.250000E+02 -5.000000E+00
ZONE T = "POP000_IND000"
000 008 -5.000000E+00 5.000000E+00 -5.000000E+00 -4.862335E+00 1.395190E+01 -5.000000E+00 1.250000E+02 -5.000000E+00
ZONE T = "POP000_IND000"
000 009 -5.000000E+00 5.000000E+00 -5.000000E+00 -4.862335E+00 1.395190E+01 -5.000000E+00 1.250000E+02 -5.000000E+00
ZONE T = "POP000_IND000"
000 010 -5.000000E+00 5.000000E+00 -5.000000E+00 -4.862335E+00 1.395190E+01 -5.000000E+00 1.250000E+02 -5.000000E+00
ZONE T = "POP000_IND000"
000 011 -5.000000E+00 5.000000E+00 -5.000000E+00 -4.862335E+00 1.395190E+01 -5.000000E+00 1.250000E+02 -5.000000E+00
ZONE T = "POP000_IND000"
000 012 -5.000000E+00 5.000000E+00 -5.000000E+00 -4.862335E+00 1.395190E+01 -5.000000E+00 1.250000E+02 -5.000000E+00
ZONE T = "POP000_IND000"
000 013 -5.000000E+00 5.000000E+00 -5.000000E+00 -4.862335E+00 1.395190E+01 -5.000000E+00 1.250000E+02 -5.000000E+00
ZONE T = "POP000_IND000"
000 014 -5.000000E+00 5.000000E+00 -5.000000E+00 -4.862335E+00 1.395190E+01 -5.000000E+00 1.250000E+02 -5.000000E+00
ZONE T = "POP000_IND000"
000 015 -5.000000E+00 5.000000E+00 -5.000000E+00 -4.862335E+00 1.395190E+01 -5.000000E+00 1.250000E+02 -5.000000E+00
ZONE T = "POP000_IND000"
000 016 -5.000000E+00 5.000000E+00 -5.000000E+00 -4.862335E+00 1.395190E+01 -5.000000E+00 1.250000E+02 -5.000000E+00
ZONE T = "POP000_IND000"
000 017 -5.000000E+00 5.000000E+00 -5.000000E+00 -4.862335E+00 1.395190E+01 -5.000000E+00 1.250000E+02 -5.000000E+00
ZONE T = "POP000_IND000"
000 018 -5.000000E+00 5.000000E+00 -5.000000E+00 -4.862335E+00 1.395190E+01 -5.000000E+00 1.250000E+02 -5.000000E+00
ZONE T = "POP000_IND000"
000 019 -5.000000E+00 5.000000E+00 -5.000000E+00 -4.862335E+00 1.395190E+01 -5.000000E+00 1.250000E+02 -5.000000E+00
ZONE T = "POP000_IND000"
000 020 -5.000000E+00 5.000000E+00 -5.000000E+00 -4.862335E+00 1.395190E+01 -5.000000E+00 1.250000E+02 -5.000000E+00
ZONE T = "POP000_IND000"
000 021 -5.000000E+00 5.000000E+00 -5.000000E+00 -4.862335E+00 1.395190E+01 -5.000000E+00 1.250000E+02 -5.000000E+00
ZONE T = "POP000_IND000"
000 022 -5.000000E+00 5.000000E+00 -5.000000E+00 -4.862335E+00 1.395190E+01 -5.000000E+00 1.250000E+02 -5.000000E+00
ZONE T = "POP000_IND000"
000 023 -5.000000E+00 5.000000E+00 -5.000000E+00 -4.862335E+00 1.395190E+01 -5.000000E+00 1.250000E+02 -5.000000E+00
ZONE T = "POP000_IND000"
000 024 -5.000000E+00 5.000000E+00 -5.000000E+00 -4.862335E+00 1.395190E+01 -5.000000E+00 1.250000E+02 -5.000000E+00
ZONE T = "POP000_IND000"
000 025 -5.000000E+00 5.000000E+00 -5.000000E+00 -4.862335E+00 1.395190E+01 -5.000000E+00 1.250000E+02 -5.000000E+00
ZONE T = "POP000_IND000"
000 026 -5.000000E+00 5.000000E+00 -5.000000E+00 -4.862335E+00 1.395190E+01 -5.000000E+00 1.250000E+02 -5.000000E+00
ZONE T = "POP000_IND000"
000 027 -5.000000E+00 5.000000E+00 -5.000000E+00 -4.862335E+00 1.395190E+01 -5.000000E+00 1.250000E+02 -5.000000E+00
ZONE T = "POP000_IND000"
000 028 -5.000000E+00 5.000000E+00 -5.000000E+00 -4.862335E+00 1.395190E+01 -5.000000E+00 1.250000E+02 -5.000000E+00
ZONE T = "POP000_IND000"
000 029 -5.000000E+00 5.000000E+00 -5.000000E+00 -4.862335E+00 1.395190E+01 -5.000000E+00 1.250000E+02 -5.000000E+00
ZONE T = "POP000_IND000"
000 030 -5.000000E+00 5.000000E+00 -5.000000E+00 -4.862335E+00 1.395190E+01 -5.000000E+00 1.250000E+02 -5.000000E+00
ZONE T = "POP000_IND000"
000 031 -5.000000E+00 5.000000E+00 -5.000000E+00 -4.862335E+00 1.395190E+01 -5.000000E+00 1.250000E+02 -5.000000E+00
ZONE T = "POP001_IND000"
001 000 -5.000000E+00 5.000000E+00 -5.000000E+00 -4.862335E+00 1.395190E+01 -5.000000E+00 1.250000E+02 -5.000000E+00
ZONE T = "POP001_IND000"
001 001 -5.000000E+00 5.000000E+00 -5.000000E+00 -4.862335E+00 1.395190E+01 -5.000000E+00 1.250000E+02 -5.000000E+00
ZONE T = "POP001_IND000"
001 002 -5.000000E+00 5.000000E+00 -5.000000E+00 -4.862335E+00 1.395190E+01 -5.000000E+00 1.250000E+02 -5.000000E+00
ZONE T = "POP001_IND000"
001 003 -5.000000E+00 5.000000E+00 -5.000000E+00 -4.862335E+00 1.395190E+01 -5.000000E+00 1.250000E+02 -5.000000E+00
ZONE T = "POP001_IND000"
001 004 -5.000000E+00 5.000000E+00 -5.000000E+00 -4.862335E+00 1.395190E+01 -5.000000E+00 1.250000E+02 -5.000000E+00
ZONE T = "POP001_IND000"
001 005 -5.000000E+00 5.000000E+00 -5.000000E+00 -4.862335E+00 1.395190E+01 -5.000000E+00 1.250000E+02 -5.000000E+00
ZONE T = "POP001_IND000"
001 006 -5.000000E+00 5.000000E+00 -5.000000E+00 -4.862335E+00 1.395190E+01 -5.000000E+00 1.250000E+02 -5.000000E+00
ZONE T = "POP001_IND000"
001 007 -5.000000E+00 5.000000E+00 -5.000000E+00 -4.862335E+00 1.395190E+01 -5.000000E+00 1.250000E+02 -5.000000E+00
ZONE T = "POP001_IND000"
001 008 -5.000000E+00 5.000000E+00 -5.000000E+00 -4.862335E+00 1.395190E+01 -5.000000E+00 1.250000E+02 -5.000000E+00
ZONE T = "POP001_IND000"
001 009 -5.000000E+00 5.000000E+00 -5.000000E+00 -4.862335E+00 1.395190E+01 -5.000000E+00 1.250000E+02 -5.000000E+00
ZONE T = "POP001_IND000"
001 010 -5.000000E+00 5.000000E+00 -5.000000E+00 -4.862335E+00 1.395190E+01 -5.000000E+00 1.250000E+02 -5.000000E+00
ZONE T = "POP001_IND000"
001 011 -5.000000E+00 5.000000E+00 -5.000000E+00 -4.862335E+00 1.395190E+01 -5.000000E+00 1.250000E+02 -5.000000E+00
ZONE T = "POP001_IND000"
001 012 -5.000000E+00 5.000000E+00 -5.000000E+00 -4.862335E+00 1.395190E+01 -5.000000E+00 1.250000E+02 -5.000000E+00
ZONE T = "POP001_IND000"
001 013 -5.000000E+00 5.000000E+00 -5.000000E+00 -4.862335E+00 1.395190E+01 -5.000000E+00 1.250000E+02 -5.000000E+00
ZONE T = "POP001_IND000"
001 014 -5.000000E+00 5.000000E+00 -5.000000E+00 -4.862335E+00 1.395190E+01 -5.000000E+00 1.250000E+02 -5.000000E+00
ZONE T = "POP001_IND000"
001 015 -5.000000E+00 5.000000E+00 -5.000000E+00 -4.862335E+00 1.395190E+01 -5.000000E+00 1.250000E+02 -5.000000E+00
ZONE T = "POP001_IND000"
001 016 -5.000000E+00 5.000000E+00 -5.000000E+00 -4.862335E+00 1.395190E+01 -5.000000E+00 1.250000E+02 -5.000000E+00
ZONE T = "POP001_IND000"
001 017 -5.000000E+00 5.000000E+00 -5.000000E+00 -4.862335E+00 1.395190E+01 -5.000000E+00 1.250000E+02 -5.000000E+00
ZONE T = "POP001_IND000"
001 018 -5.000000E+00 5.000000E+00 -5.000000E+00 -4.862335E+00 1.395190E+01 -5.000000E+00 1.250000E+02 -5.000000E+00
ZONE T = "POP001_IND000"
001 019 -5.000000E+00 5.000000E+00 -5.000000E+00 -4.862335E+00 1.395190E+01 -5.000000E+00 1.250000E+02 -5.000000E+00
ZONE T = "POP001_IND000"
001 020 -5.000000E+00 5.000000E+00 -5.000000E+00 -4.862335E+00 1.395190E+01 -5.000000E+00 1.250000E+02 -5.000000E+00
ZONE T = "POP001_IND000"
001 021 -5.000000E+00 5.000000E+00 -5.000000E+00 -4.862335E+00 1.395190E+01 -5.000000E+00 1.250000E+02 -5.000000E+00
ZONE T = "POP001_IND000"
001 022 -5.000000E+00 5.000000E+00 -5.000000E+00 -4.862335E+00 1.395190E+01 -5.000000E+00 1.250000E+02 -5.000000E+00
ZONE T = "POP001_IND000"
001 023 -5.000000E+00 5.000000E+00 -5.000000E+00 -4.862335E+00 1.395190E+01 -5.000000E+00 1.250000E+02 -5.000000E+00
ZONE T = "POP001_IND000"
001 024 -5.000000E+00 5.000000E+00 -5.000000E+00 -4.862335E+00 1.395190E+01 -5.000000E+00 1.250000E+02 -5.000000E+00
ZONE T = "POP001_IND000"
001 025 -5.000000E+00 5.000000E+00 -5.000000E+00 -4.862335E+00 1.395190E+01 -5.000000E+00 1.250000E+02 -5.000000E+00
ZONE T = "POP001_IND000"
001 026 -5.000000E+00 5.000000E+00 -5.000000E+00 -4.862335E+00 1.395190E+01 -5.000000E+00 1.250000E+02 -5.000000E+00
ZONE T = "POP001_IND000"
001 027 -5.000000E+00 5.000000E+00 -5.000000E+00 -4.862335E+00 1.395190E+01 -5.000000E+00 1.250000E+02 -5.000000E+00
ZONE T = "POP001_IND000"
001 028 -5.000000E+00 5.000000E+00 -5.000000E+00 -4.862335E+00 1.395190E+01 -5.000000E+00 1.250000E+02 -5.000000E+00
ZONE T = "POP001_IND000"
001 029 -5.000000E+00 5.000000E+00 -5.000000E+00 -4.862335E+00 1.395190E+01 -5.000000E+00 1.250000E+02 -5.000000E+00
ZONE T = "POP001_IND000"
001 030 -5.000000E+00 5.000000E+00 -5.000000E+00 -4.862335E+00 1.395190E+01 -5.000000E+00 1.250000E+02 -5.000000E+00
ZONE T = "POP001_IND000"
001 031 -5.000000E+00 5.000000E+00 -5.000000E+00 -4.862335E+00 1.395190E+01 -5.000000E+00 1.250000E+02 -5.000000E+00
ZONE T = "POP002_IND000"
002 000 -5.000000E+00 5.000000E+00 -5.000000E+00 -4.862335E+00 1.395190E+01 -5.000000E+00 1.250000E+02 -5.000000E+00
ZONE T = "POP002_IND000"
002 001 -5.000000E+00 5.000000E+00 -5.000000E+00 -4.862335E+00 1.395190E+01 -5.000000E+00 1.250000E+02 -5.000000E+00
ZONE T = "POP002_IND000"
002 002 -5.000000E+00 5.000000E+00 -5.000000E+00 -4.862335E+00 1.395190E+01 -5.000000E+00 1.250000E+02 -5.000000E+00
ZONE T = "POP002_IND000"
002 003 -5.000000E+00 5.000000E+00 -5.000000E+00 -4.862335E+00 1.395190E+01 -5.000000E+00 1.250000E+02 -5.000000E+00
ZONE T = "POP002_IND000"
002 004 -5.000000E+00 5.000000E+00 -5.000000E+00 -4.862335E+00 1.395190E+01 -5.000000E+00 1.250000E+02 -5.000000E+00
ZONE T = "POP002_IND000"
002 005 -5.000000E+00 5.000000E+00 -5.000000E+00 -4.862335E+00 1.395190E+01 -5.000000E+00 1.250000E+02 -5.000000E+00
ZONE T = "POP002_IND000"
002 006 -5.000000E+00 5.000000E+00 -5.000000E+00 -4.862335E+00 1.395190E+01 -5.000000E+00 1.250000E+02 -5.000000E+00
ZONE T = "POP002_IND000"
002 007 -5.000000E+00 5.000000E+00 -5.000000E+00 -4.862335E+00 1.395190E+01 -5.000000E+00 1.250000E+02 -5.000000E+00
ZONE T = "POP002_IND000"
002 008 -5.000000E+00 5.000000E+00 -5.000000E+00 -4.862335E+00 1.395190E+01 -5.000000E+00 1.250000E+02 -5.000000E+00
ZONE T = "POP002_IND000"
002 009 -5.000000E+00 5.000000E+00 -5.000000E+00 -4.862335E+00 1.395190E+01 -5.000000E+00 1.250000E+02 -5.000000E+00
ZONE T = "POP002_IND000"
002 010 -5.000000E+00 5.000000E+00 -5.000000E+00 -4.862335E+00 1.395190E+01 -5.000000E+00 1.250000E+02 -5.000000E+00
ZONE T = "POP002_IND000"
002 011 -5.000000E+00 5.000000E+00 -5.000000E+00 -4.862335E+00 1.395190E+01 -5.000000E+00 1.250000E+02 -5.000000E+00
ZONE T = "POP002_IND000"
002 012 -5.000000E+00 5.000000E+00 -5.000000E+00 -4.862335E+00 1.395190E+01 -5.000000E+00 1.250000E+02 -5.000000E+00
ZONE T = "POP002_IND000"
002 013 -5.000000E+00 5.000000E+00 -5.000000E+00 -4.862335E+00 1.395190E+01 -5.000000E+00 1.250000E+02 -5.000000E+00
ZONE T = "POP002_IND000"
002 014 -5.000000E+00 5.000000E+00 -5.000000E+00 -4.862335E+00 1.395190E+01 -5.000000E+00 1.250000E+02 -5.000000E+00
ZONE T = "POP002_IND000"
002 015 -5.000000E+00 5.000000E+00 -5.000000E+00 -4.862335E+00 1.395190E+01 -5.000000E+00 1.250000E+02 -5.000000E+00
ZONE T = "POP002_IND000"
002 016 -5.000000E+00 5.000000E+00 -5.000000E+00 -4.862335E+00 1.395190E+01 -5.000000E+00 1.250000E+02 -5.000000E+00
ZONE T = "POP002_IND000"
002 017 -5.000000E+00 5.000000E+00 -5.000000E+00 -4.862335E+00 1.395190E+01 -5.000000E+00 1.250000E+02 -5.000000E+00
ZONE T = "POP002_IND000"
002 018 -5.000000E+00 5.000000E+00 -5.000000E+00 -4.862335E+00 1.395190E+01 -5.000000E+00 1.250000E+02 -5.000000E+00
ZONE T = "POP002_IND000"
002 019 -5.000000E+00 5.000000E+00 -5.000000E+00 -4.862335E+00 1.395190E+01 -5.000000E+00 1.250000E+02 -5.000000E+00
ZONE T = "POP002_IND000"
002 020 -5.000000E+00 5.000000E+00 -5.000000E+00 -4.862335E+00 1.395190E+01 -5.000000E+00 1.250000E+02 -5.000000E+00
ZONE T = "POP002_IND000"
002 021 -5.000000E+00 5.000000E+00 -5.000000E+00 -4.862335E+00 1.395190E+01 -5.000000E+00 1.250000E+02 -5.000000E+00
ZONE T = "POP002_IND000"