VARIABLES = "population","individual","x1","x2","x3","objective1","objective2","p1","p2","p3"
ZONE T = "POP018_IND000"
018 000 -5.982347E+08 3.957451E+00 -7.830498E+05 -0.000000E+00 1.055933E+07 -5.990177E+08 1.853858E+15 -5.974516E+08
ZONE T = "POP018_IND000"
018 001 -3.934555E+10 1.509055E+02 1.937191E+07 -0.000000E+00 2.998447E+08 -3.932618E+10 -1.150199E+20 -3.936492E+10
ZONE T = "POP018_IND000"
018 002 -5.360876E+10 -8.276926E+03 3.543275E+07 -0.000000E+00 3.842641E+08 -5.357333E+10 1.572207E+22 -5.364418E+10
ZONE T = "POP018_IND000"
018 003 -6.292714E+09 -7.115028E+03 1.195023E+07 -0.000000E+00 6.949548E+07 -6.280771E+09 5.350458E+20 -6.304658E+09
ZONE T = "POP018_IND000"
018 004 -9.159149E+09 -9.065061E+03 1.670344E+07 -0.000000E+00 9.381623E+07 -9.142455E+09 1.386858E+21 -9.175844E+09
ZONE T = "POP018_IND000"
018 005 -5.371704E+09 -2.370853E+03 4.220301E+06 -0.000000E+00 6.102621E+07 -5.367486E+09 5.374773E+19 -5.375922E+09
ZONE T = "POP018_IND000"
018 006 -4.197733E+09 -1.204846E+02 2.303924E+06 -0.000000E+00 5.005884E+07 -4.195429E+09 1.165238E+18 -4.200037E+09
ZONE T = "POP018_IND000"
018 007 -5.364421E+09 3.393347E+02 1.679231E+06 -0.000000E+00 6.085571E+07 -5.362742E+09 -3.056762E+18 -5.366101E+09
ZONE T = "POP018_IND000"
018 008 -2.400170E+09 -2.544464E+03 4.595506E+06 -0.000000E+00 3.214388E+07 -2.395577E+09 2.806542E+19 -2.404763E+09
ZONE T = "POP018_IND000"
018 009 -3.419298E+09 -1.035505E+03 2.329167E+06 -0.000000E+00 4.250323E+07 -3.416970E+09 8.246881E+18 -3.421626E+09
ZONE T = "POP018_IND000"
018 010 -4.336366E+09 -2.332555E+03 4.294000E+06 -0.000000E+00 5.145375E+07 -4.332075E+09 4.343301E+19 -4.340658E+09
ZONE T = "POP018_IND000"
018 011 -2.453407E+09 -2.304535E+03 4.298092E+06 -0.000000E+00 3.269802E+07 -2.449111E+09 2.430125E+19 -2.457703E+09
ZONE T = "POP018_IND000"
018 012 -2.411378E+09 -2.204435E+03 4.164429E+06 -0.000000E+00 3.224685E+07 -2.407215E+09 2.213696E+19 -2.415540E+09
ZONE T = "POP018_IND000"
018 013 4.807670E+10 -1.956528E+04 1.095613E+07 -0.000000E+00 3.516255E+08 4.808763E+10 -1.030571E+22 4.806576E+10
ZONE T = "POP018_IND000"
018 014 -4.133331E+09 -3.541405E+02 1.960569E+06 -0.000000E+00 4.943017E+07 -4.131371E+09 2.869842E+18 -4.135292E+09
ZONE T = "POP018_IND000"
018 015 -3.283237E+09 -9.278262E+02 2.136622E+06 -0.000000E+00 4.114040E+07 -3.281101E+09 6.508734E+18 -3.285372E+09
ZONE T = "POP018_IND000"
018 016 -2.953147E+09 -2.456724E+03 4.462010E+06 -0.000000E+00 3.789944E+07 -2.948688E+09 3.237219E+19 -2.957607E+09
ZONE T = "POP018_IND000"
018 017 -3.552014E+09 -1.053442E+03 2.415289E+06 -0.000000E+00 4.381778E+07 -3.549599E+09 9.037624E+18 -3.554428E+09
ZONE T = "POP018_IND000"
018 018 -3.262570E+09 -3.259289E+02 1.414516E+06 -0.000000E+00 4.090100E+07 -3.261156E+09 1.504147E+18 -3.263984E+09
ZONE T = "POP018_IND000"
018 019 -4.622841E+09 -1.103436E+02 1.840014E+06 -0.000000E+00 5.404482E+07 -4.621001E+09 9.385928E+17 -4.624681E+09
ZONE T = "POP018_IND000"
018 020 -3.356929E+09 -9.211027E+02 2.102750E+06 -0.000000E+00 4.187393E+07 -3.354827E+09 6.501864E+18 -3.359030E+09
ZONE T = "POP018_IND000"
018 021 -3.702593E+09 -3.814232E+02 1.608542E+06 -0.000000E+00 4.525770E+07 -3.700985E+09 2.271671E+18 -3.704201E+09
ZONE T = "POP018_IND000"
018 022 -4.623233E+09 -1.100167E+02 1.839853E+06 -0.000000E+00 5.404848E+07 -4.621394E+09 9.358099E+17 -4.625073E+09
ZONE T = "POP018_IND000"
018 023 -2.477342E+09 -3.308068E+02 9.523559E+05 -0.000000E+00 3.280909E+07 -2.476390E+09 7.804763E+17 -2.478294E+09
ZONE T = "POP018_IND000"
018 024 -2.753812E+09 -7.761450E+02 1.699518E+06 -0.000000E+00 3.573745E+07 -2.752113E+09 3.632477E+18 -2.755510E+09
ZONE T = "POP018_IND000"
018 025 -3.276818E+09 -9.264427E+02 2.131850E+06 -0.000000E+00 4.107602E+07 -3.274687E+09 6.471836E+18 -3.278949E+09
ZONE T = "POP018_IND000"
018 026 -3.276951E+09 -9.263630E+02 2.131823E+06 -0.000000E+00 4.107736E+07 -3.274820E+09 6.471461E+18 -3.279082E+09
ZONE T = "POP018_IND000"
018 027 -2.284356E+09 -4.573419E+02 1.014695E+06 -0.000000E+00 3.075496E+07 -2.283341E+09 1.060084E+18 -2.285370E+09
ZONE T = "POP018_IND000"
018 028 -3.285816E+09 -9.257997E+02 2.128620E+06 -0.000000E+00 4.116584E+07 -3.283688E+09 6.475276E+18 -3.287943E+09
ZONE T = "POP018_IND000"
018 029 -3.276964E+09 -9.264057E+02 2.131862E+06 -0.000000E+00 4.107748E+07 -3.274833E+09 6.471902E+18 -3.279095E+09
ZONE T = "POP018_IND000"
018 030 -3.245980E+09 -9.275812E+02 2.143373E+06 -0.000000E+00 4.076785E+07 -3.243837E+09 6.453501E+18 -3.248122E+09
ZONE T = "POP018_IND000"
018 031 -2.276724E+09 -3.582033E+02 8.957502E+05 -0.000000E+00 3.066684E+07 -2.275829E+09 7.305113E+17 -2.277620E+09
ZONE T = "POP011_IND000"
011 000 1.713146E-03 -1.777997E+01 5.998347E-01 -5.704830E-01 1.379642E+01 -1.717842E+01 -1.827100E-02 1.718185E+01
ZONE T = "POP011_IND000"
011 001 7.627298E-03 -1.966774E+02 2.720411E+00 -0.000000E+00 8.030522E+01 -1.939494E+02 -4.080936E+00 1.939647E+02
ZONE T = "POP011_IND000"
011 002 -3.337000E-02 3.814267E+02 2.493511E+00 -0.000000E+00 1.241860E+02 3.838868E+02 -3.173793E+01 -3.839535E+02
ZONE T = "POP011_IND000"
011 003 -3.256560E-02 3.814260E+02 2.324696E+00 -0.000000E+00 1.139879E+02 3.837181E+02 -2.887590E+01 -3.837832E+02
ZONE T = "POP011_IND000"
011 004 -3.256184E-02 3.814209E+02 2.327536E+00 -0.000000E+00 1.222095E+02 3.837158E+02 -2.890745E+01 -3.837810E+02
ZONE T = "POP011_IND000"
011 005 -3.256025E-02 3.814219E+02 2.321798E+00 -0.000000E+00 1.175751E+02 3.837112E+02 -2.883486E+01 -3.837763E+02
ZONE T = "POP011_IND000"
011 006 -3.256193E-02 3.814204E+02 2.327768E+00 -0.000000E+00 1.138006E+02 3.837156E+02 -2.891037E+01 -3.837807E+02
ZONE T = "POP011_IND000"
011 007 -3.256200E-02 3.814212E+02 2.327773E+00 -0.000000E+00 1.170389E+02 3.837164E+02 -2.891056E+01 -3.837815E+02
ZONE T = "POP011_IND000"
011 008 -3.243559E-02 3.814259E+02 2.169808E+00 -0.000000E+00 1.172501E+02 3.835633E+02 -2.684438E+01 -3.836281E+02
ZONE T = "POP011_IND000"
011 009 -3.243992E-02 3.814247E+02 2.182204E+00 -0.000000E+00 1.118080E+02 3.835744E+02 -2.700125E+01 -3.836393E+02
ZONE T = "POP011_IND000"
011 010 -3.244008E-02 3.814248E+02 2.182280E+00 -0.000000E+00 1.097337E+02 3.835747E+02 -2.700234E+01 -3.836395E+02
ZONE T = "POP011_IND000"
011 011 -3.232965E-02 3.814258E+02 2.133069E+00 -0.000000E+00 1.137201E+02 3.835266E+02 -2.630364E+01 -3.835912E+02
ZONE T = "POP011_IND000"
011 012 -3.232965E-02 3.814258E+02 2.133069E+00 -0.000000E+00 1.137201E+02 3.835266E+02 -2.630364E+01 -3.835912E+02
ZONE T = "POP011_IND000"
011 013 -3.235508E-02 3.814253E+02 2.141343E+00 -0.000000E+00 1.184452E+02 3.835343E+02 -2.642642E+01 -3.835990E+02
ZONE T = "POP011_IND000"
011 014 -3.235508E-02 3.814253E+02 2.141343E+00 -0.000000E+00 1.184452E+02 3.835343E+02 -2.642642E+01 -3.835990E+02
ZONE T = "POP011_IND000"
011 015 -3.235808E-02 3.814252E+02 2.142124E+00 -0.000000E+00 1.135478E+02 3.835350E+02 -2.643849E+01 -3.835997E+02
ZONE T = "POP011_IND000"
011 016 -3.235808E-02 3.814252E+02 2.142124E+00 -0.000000E+00 1.135478E+02 3.835350E+02 -2.643849E+01 -3.835997E+02
ZONE T = "POP011_IND000"
011 017 -3.235808E-02 3.814252E+02 2.142124E+00 -0.000000E+00 1.135478E+02 3.835350E+02 -2.643849E+01 -3.835997E+02
ZONE T = "POP011_IND000"
011 018 -3.236250E-02 3.814255E+02 2.143048E+00 -0.000000E+00 1.208715E+02 3.835362E+02 -2.645353E+01 -3.836009E+02
ZONE T = "POP011_IND000"
011 019 -3.234082E-02 3.814281E+02 2.138873E+00 -0.000000E+00 1.152149E+02 3.835346E+02 -2.638449E+01 -3.835993E+02
ZONE T = "POP011_IND000"
011 020 -3.236070E-02 3.814265E+02 2.142957E+00 -0.000000E+00 1.113734E+02 3.835371E+02 -2.645100E+01 -3.836018E+02
ZONE T = "POP011_IND000"
011 021 -3.236064E-02 3.814271E+02 2.142910E+00 -0.000000E+00 1.133069E+02 3.835377E+02 -2.645042E+01 -3.836024E+02
ZONE T = "POP011_IND000"
011 022 -3.236064E-02 3.814271E+02 2.142910E+00 -0.000000E+00 1.133069E+02 3.835377E+02 -2.645042E+01 -3.836024E+02
ZONE T = "POP011_IND000"
011 023 -3.236064E-02 3.814271E+02 2.142910E+00 -0.000000E+00 1.133069E+02 3.835377E+02 -2.645042E+01 -3.836024E+02
ZONE T = "POP011_IND000"
011 024 -3.236064E-02 3.814271E+02 2.142910E+00 -0.000000E+00 1.133069E+02 3.835377E+02 -2.645042E+01 -3.836024E+02
ZONE T = "POP011_IND000"
011 025 -3.236064E-02 3.814271E+02 2.142910E+00 -0.000000E+00 1.133069E+02 3.835377E+02 -2.645042E+01 -3.836024E+02
ZONE T = "POP011_IND000"
011 026 -3.236184E-02 3.814271E+02 2.143236E+00 -0.000000E+00 1.149840E+02 3.835379E+02 -2.645543E+01 -3.836027E+02
ZONE T = "POP011_IND000"
011 027 -3.236184E-02 3.814271E+02 2.143236E+00 -0.000000E+00 1.149840E+02 3.835379E+02 -2.645543E+01 -3.836027E+02
ZONE T = "POP011_IND000"
011 028 -3.236184E-02 3.814271E+02 2.143236E+00 -0.000000E+00 1.149840E+02 3.835379E+02 -2.645543E+01 -3.836027E+02
ZONE T = "POP011_IND000"
011 029 -3.236184E-02 3.814271E+02 2.143236E+00 -0.000000E+00 1.149840E+02 3.835379E+02 -2.645543E+01 -3.836027E+02
ZONE T = "POP011_IND000"
011 030 -3.236184E-02 3.814271E+02 2.143236E+00 -0.000000E+00 1.149840E+02 3.835379E+02 -2.645543E+01 -3.836027E+02
ZONE T = "POP011_IND000"
011 031 -3.236184E-02 3.814271E+02 2.143236E+00 -0.000000E+00 1.149840E+02 3.835379E+02 -2.645543E+01 -3.836027E+02
ZONE T = "POP016_IND000"
016 000 3.768577E+05 -2.076200E-04 1.265111E+02 -0.000000E+00 2.895192E+04 3.769842E+05 -9.898630E+03 3.767311E+05
ZONE T = "POP016_IND000"
016 001 7.346329E+06 -2.472488E-02 -9.893979E+02 -0.000000E+00 3.113240E+05 7.345340E+06 1.797114E+08 7.347318E+06
ZONE T = "POP016_IND000"
016 002 -3.818734E+03 -7.221071E-06 1.637051E+02 -0.000000E+00 7.931288E+02 -3.655029E+03 4.514227E+00 -3.982440E+03
ZONE T = "POP016_IND000"
016 003 -3.816690E+03 -7.212406E-06 1.637030E+02 -0.000000E+00 7.846691E+02 -3.652987E+03 4.506338E+00 -3.980393E+03
ZONE T = "POP016_IND000"
016 004 -4.621814E+05 -3.963913E-04 2.616115E+02 -0.000000E+00 3.411434E+04 -4.619198E+05 4.792844E+04 -4.624430E+05
ZONE T = "POP016_IND000"
016 005 -3.815889E+03 -7.207790E-06 1.637036E+02 -0.000000E+00 7.929831E+02 -3.652186E+03 4.502524E+00 -3.979593E+03
ZONE T = "POP016_IND000"
016 006 -3.812839E+03 -7.230812E-06 1.637034E+02 -0.000000E+00 7.871571E+02 -3.649136E+03 4.513291E+00 -3.976542E+03
ZONE T = "POP016_IND000"
016 007 -3.818514E+03 -7.158766E-06 1.637033E+02 -0.000000E+00 7.919314E+02 -3.654811E+03 4.474968E+00 -3.982217E+03
ZONE T = "POP016_IND000"
016 008 -3.821372E+03 -7.173503E-06 1.637137E+02 -0.000000E+00 7.905113E+02 -3.657658E+03 4.487821E+00 -3.985086E+03
ZONE T = "POP016_IND000"
016 009 -3.818150E+03 -7.172011E-06 1.637397E+02 -0.000000E+00 7.919000E+02 -3.654411E+03 4.483817E+00 -3.981890E+03
ZONE T = "POP016_IND000"
016 010 -6.283363E+05 -3.488235E-04 1.118591E+03 -0.000000E+00 4.377695E+04 -6.272177E+05 2.451709E+05 -6.294549E+05
ZONE T = "POP016_IND000"
016 011 -4.636915E+05 -1.232758E-03 2.693847E+02 -0.000000E+00 3.421256E+04 -4.634221E+05 1.539855E+05 -4.639609E+05
ZONE T = "POP016_IND000"
016 012 -4.746602E+03 -8.796751E-06 2.029777E+02 -0.000000E+00 9.452060E+02 -4.543624E+03 8.475266E+00 -4.949580E+03
ZONE T = "POP016_IND000"
016 013 -4.739914E+03 -8.820420E-06 2.029792E+02 -0.000000E+00 9.431743E+02 -4.536934E+03 8.486158E+00 -4.942893E+03
ZONE T = "POP016_IND000"
016 014 -4.745608E+03 -8.856561E-06 2.029736E+02 -0.000000E+00 9.364587E+02 -4.542634E+03 8.530933E+00 -4.948581E+03
ZONE T = "POP016_IND000"
016 015 -4.722373E+03 -9.058502E-06 2.029966E+02 -0.000000E+00 9.369541E+02 -4.519376E+03 8.683711E+00 -4.925370E+03
ZONE T = "POP016_IND000"
016 016 -4.722213E+03 -9.056897E-06 2.029961E+02 -0.000000E+00 9.347836E+02 -4.519217E+03 8.681858E+00 -4.925209E+03
ZONE T = "POP016_IND000"
016 017 -4.725547E+03 -9.049827E-06 2.029926E+02 -0.000000E+00 9.483002E+02 -4.522555E+03 8.681059E+00 -4.928540E+03
ZONE T = "POP016_IND000"
016 018 -4.716548E+03 -8.962535E-06 2.030087E+02 -0.000000E+00 9.433377E+02 -4.513539E+03 8.581630E+00 -4.919556E+03
ZONE T = "POP016_IND000"
016 019 -4.721994E+03 -9.023532E-06 2.029961E+02 -0.000000E+00 9.401621E+02 -4.518998E+03 8.649472E+00 -4.924990E+03
ZONE T = "POP016_IND000"
016 020 -4.698375E+03 -9.043144E-06 2.030370E+02 -0.000000E+00 9.372403E+02 -4.495338E+03 8.626652E+00 -4.901412E+03
ZONE T = "POP016_IND000"
016 021 -4.723912E+03 -8.896261E-06 2.030093E+02 -0.000000E+00 9.449933E+02 -4.520903E+03 8.531498E+00 -4.926922E+03
ZONE T = "POP016_IND000"
016 022 -1.223752E+05 -2.062518E-04 2.007458E+02 -0.000000E+00 1.183028E+04 -1.221744E+05 5.066845E+03 -1.225759E+05
ZONE T = "POP016_IND000"
016 023 -1.223808E+05 -1.706690E-04 2.007469E+02 -0.000000E+00 1.182959E+04 -1.221801E+05 4.192922E+03 -1.225816E+05
ZONE T = "POP016_IND000"
016 024 -5.499728E+03 -1.046669E-05 2.371845E+02 -0.000000E+00 1.066078E+03 -5.262543E+03 1.365327E+01 -5.736912E+03
ZONE T = "POP016_IND000"
016 025 -5.515966E+03 -1.049938E-05 2.371884E+02 -0.000000E+00 1.057431E+03 -5.278778E+03 1.373658E+01 -5.753155E+03
ZONE T = "POP016_IND000"
016 026 -5.481763E+03 -1.050252E-05 2.371857E+02 -0.000000E+00 1.055728E+03 -5.244577E+03 1.365533E+01 -5.718949E+03
ZONE T = "POP016_IND000"
016 027 -5.486213E+03 -1.047678E-05 2.371855E+02 -0.000000E+00 1.059793E+03 -5.249027E+03 1.363291E+01 -5.723398E+03
ZONE T = "POP016_IND000"
016 028 -4.703753E+04 -2.342334E-04 2.447752E+02 -0.000000E+00 5.542921E+03 -4.679276E+04 2.696874E+03 -4.728231E+04
ZONE T = "POP016_IND000"
016 029 -5.496555E+03 -1.046089E-05 2.371853E+02 -0.000000E+00 1.059406E+03 -5.259370E+03 1.363789E+01 -5.733740E+03
ZONE T = "POP016_IND000"
016 030 -7.591193E+03 -1.903112E-06 1.025463E+02 -0.000000E+00 1.305903E+03 -7.488647E+03 1.481475E+00 -7.693740E+03
ZONE T = "POP016_IND000"
016 031 -9.864450E+04 1.999503E-05 5.849619E+01 -8.300000E-05 9.911788E+03 -9.858600E+04 -1.153779E+02 -9.870300E+04
ZONE T = "POP017_IND000"
017 000 4.051650E+07 -1.729135E+00 6.672380E+03 -0.000000E+00 1.220429E+06 4.052317E+07 -4.674568E+11 4.050983E+07
ZONE T = "POP017_IND000"
017 001 2.226294E+08 -8.538783E+00 -4.349807E+04 -0.000000E+00 4.770168E+06 2.225859E+08 8.268915E+13 2.226729E+08
ZONE T = "POP017_IND000"
017 002 5.885882E+08 7.909484E+00 -8.518204E+04 -0.000000E+00 1.038048E+07 5.885030E+08 -3.965589E+14 5.886733E+08
ZONE T = "POP017_IND000"
017 003 8.385469E+08 2.739891E+02 -4.170811E+05 -0.000000E+00 1.379788E+07 8.381301E+08 -9.582552E+16 8.389637E+08
ZONE T = "POP017_IND000"
017 004 1.322725E+08 1.187580E+00 -3.009209E+04 -0.000000E+00 3.145611E+06 1.322424E+08 -4.726992E+12 1.323026E+08
ZONE T = "POP017_IND000"
017 005 -6.526774E+07 9.168527E+00 -2.126308E+04 -0.000000E+00 1.788400E+06 -6.528899E+07 1.272402E+13 -6.524649E+07
ZONE T = "POP017_IND000"
017 006 1.589121E+05 9.384089E-03 -3.794349E+02 -0.000000E+00 1.459634E+04 1.585327E+05 -5.658305E+05 1.592915E+05
ZONE T = "POP017_IND000"
017 007 1.964430E+05 -8.591622E-03 -3.632561E+02 -0.000000E+00 1.727234E+04 1.960798E+05 6.130906E+05 1.968063E+05
ZONE T = "POP017_IND000"
017 008 3.141627E+05 -1.481655E-02 -7.910514E+01 -1.000000E-06 2.501322E+04 3.140835E+05 3.682191E+05 3.142418E+05
ZONE T = "POP017_IND000"
017 009 1.036818E+04 8.089736E-04 -6.138735E+01 -4.700000E-05 1.667957E+03 1.030679E+04 -5.148914E+02 1.042956E+04
ZONE T = "POP017_IND000"
017 010 -1.338420E+06 -4.555065E-02 4.966592E+00 -3.703302E+00 7.966678E+04 -1.338415E+06 3.027928E+05 -1.338425E+06
ZONE T = "POP017_IND000"
017 011 1.548638E+04 3.904231E-04 -3.966601E+01 -3.586000E-03 2.268292E+03 1.544671E+04 -2.398302E+02 1.552604E+04
ZONE T = "POP017_IND000"
017 012 4.533708E+05 -2.706585E-01 -5.746293E+01 -1.020000E-04 3.353452E+04 4.533131E+05 7.051199E+06 4.534286E+05
ZONE T = "POP017_IND000"
017 013 -1.444464E+02 8.362341E-04 -3.880392E+01 -4.261000E-03 7.121231E+01 -1.832495E+02 4.687166E+00 -1.056434E+02
ZONE T = "POP017_IND000"
017 014 -3.946937E+03 8.643026E-04 -3.863288E+01 -4.410000E-03 7.776693E+02 -3.985569E+03 1.317902E+02 -3.908305E+03
ZONE T = "POP017_IND000"
017 015 -1.037582E+07 3.736590E-01 6.879359E+02 -0.000000E+00 4.102197E+05 -1.037513E+07 -2.667139E+09 -1.037650E+07
ZONE T = "POP017_IND000"
017 016 -2.552788E+07 -7.022364E-01 1.162933E+02 -0.000000E+00 8.426318E+05 -2.552777E+07 2.084744E+09 -2.552800E+07
ZONE T = "POP017_IND000"
017 017 -1.146051E+07 1.025228E-03 5.053816E+02 -0.000000E+00 4.441168E+05 -1.146000E+07 -5.938048E+06 -1.146101E+07
ZONE T = "POP017_IND000"
017 018 -1.385941E+07 5.650376E-02 5.772443E+02 -0.000000E+00 5.170503E+05 -1.385883E+07 -4.520451E+08 -1.385999E+07
ZONE T = "POP017_IND000"
017 019 -1.107828E+07 1.742879E-01 5.843300E+02 -0.000000E+00 4.322521E+05 -1.107769E+07 -1.128230E+09 -1.107886E+07
ZONE T = "POP017_IND000"
017 020 4.350212E+02 5.780367E-04 -1.530517E+01 -4.683930E-01 1.433211E+02 4.197166E+02 -3.848611E+00 4.503258E+02
ZONE T = "POP017_IND000"
017 021 -1.092193E+07 2.341450E-01 6.152148E+02 -0.000000E+00 4.273823E+05 -1.092131E+07 -1.573298E+09 -1.092254E+07
ZONE T = "POP017_IND000"
017 022 -2.471573E+04 1.088192E-03 -1.394795E+01 -6.144640E-01 3.285594E+03 -2.472968E+04 3.751366E+02 -2.470178E+04
ZONE T = "POP017_IND000"
017 023 -1.016960E+07 3.104926E-01 6.449247E+02 -0.000000E+00 4.036782E+05 -1.016895E+07 -2.036404E+09 -1.017024E+07
ZONE T = "POP017_IND000"
017 024 -1.078105E+07 7.491121E-02 5.282865E+02 -0.000000E+00 4.229425E+05 -1.078053E+07 -4.266557E+08 -1.078158E+07
ZONE T = "POP017_IND000"
017 025 -1.092099E+07 2.504036E-01 6.242338E+02 -0.000000E+00 4.273476E+05 -1.092037E+07 -1.707064E+09 -1.092162E+07
ZONE T = "POP017_IND000"
017 026 -1.958696E+04 1.120662E-03 -1.429856E+01 -5.728530E-01 2.717791E+03 -1.960125E+04 3.138583E+02 -1.957266E+04
ZONE T = "POP017_IND000"
017 027 -1.854319E+04 8.940601E-04 -1.432442E+01 -5.698980E-01 2.607565E+03 -1.855752E+04 2.374806E+02 -1.852887E+04
ZONE T = "POP017_IND000"
017 028 -1.057782E+07 2.516755E-01 6.198679E+02 -0.000000E+00 4.165805E+05 -1.057720E+07 -1.650199E+09 -1.057844E+07
ZONE T = "POP017_IND000"
017 029 -1.092143E+07 2.079745E-01 6.006641E+02 -0.000000E+00 4.273593E+05 -1.092083E+07 -1.364336E+09 -1.092203E+07
ZONE T = "POP017_IND000"
017 030 -1.092209E+07 2.057888E-01 5.994644E+02 -0.000000E+00 4.273719E+05 -1.092149E+07 -1.347383E+09 -1.092269E+07
ZONE T = "POP017_IND000"
017 031 -1.050687E+07 1.163840E-01 5.432208E+02 -0.000000E+00 4.143282E+05 -1.050633E+07 -6.642672E+08 -1.050741E+07
ZONE T = "POP010_IND000"
010 000 4.983623E-02 -9.037965E+00 4.051885E+02 -1.640440E+00 1.327917E+02 3.962003E+02 -1.825042E+02 -3.961007E+02
ZONE T = "POP010_IND000"
010 001 3.529049E-05 5.614004E-02 -6.207707E-02 -1.972235E+01 2.080580E-01 -5.902000E-03 -0.000000E+00 5.972000E-03
ZONE T = "POP010_IND000"
010 002 3.529049E-05 5.614004E-02 -6.207707E-02 -1.972235E+01 2.080580E-01 -5.902000E-03 -0.000000E+00 5.972000E-03
ZONE T = "POP010_IND000"
010 003 3.529049E-05 5.614004E-02 -6.207707E-02 -1.972235E+01 2.080580E-01 -5.902000E-03 -0.000000E+00 5.972000E-03
ZONE T = "POP010_IND000"
010 004 3.529049E-05 5.614004E-02 -6.207707E-02 -1.972235E+01 2.080580E-01 -5.902000E-03 -0.000000E+00 5.972000E-03
ZONE T = "POP010_IND000"
010 005 3.529049E-05 5.614004E-02 -6.207707E-02 -1.972235E+01 2.080580E-01 -5.902000E-03 -0.000000E+00 5.972000E-03
ZONE T = "POP010_IND000"
010 006 3.529049E-05 5.614004E-02 -6.207707E-02 -1.972235E+01 2.080580E-01 -5.902000E-03 -0.000000E+00 5.972000E-03
ZONE T = "POP010_IND000"
010 007 3.529049E-05 5.614004E-02 -6.207707E-02 -1.972235E+01 2.080580E-01 -5.902000E-03 -0.000000E+00 5.972000E-03
ZONE T = "POP010_IND000"
010 008 3.529049E-05 5.614004E-02 -6.207707E-02 -1.972235E+01 2.080580E-01 -5.902000E-03 -0.000000E+00 5.972000E-03
ZONE T = "POP010_IND000"
010 009 3.529049E-05 5.614004E-02 -6.207707E-02 -1.972235E+01 2.080580E-01 -5.902000E-03 -0.000000E+00 5.972000E-03
ZONE T = "POP010_IND000"
010 010 3.529049E-05 5.614004E-02 -6.207707E-02 -1.972235E+01 2.080580E-01 -5.902000E-03 -0.000000E+00 5.972000E-03
ZONE T = "POP010_IND000"
010 011 3.529049E-05 5.614004E-02 -6.207707E-02 -1.972235E+01 2.080580E-01 -5.902000E-03 -0.000000E+00 5.972000E-03
ZONE T = "POP010_IND000"
010 012 3.529049E-05 5.614004E-02 -6.207707E-02 -1.972235E+01 2.080580E-01 -5.902000E-03 -0.000000E+00 5.972000E-03
ZONE T = "POP010_IND000"
010 013 3.529049E-05 5.614004E-02 -6.207707E-02 -1.972235E+01 2.080580E-01 -5.902000E-03 -0.000000E+00 5.972000E-03
ZONE T = "POP010_IND000"
010 014 3.529049E-05 5.614004E-02 -6.207707E-02 -1.972235E+01 2.080580E-01 -5.902000E-03 -0.000000E+00 5.972000E-03
ZONE T = "POP010_IND000"
010 015 3.529049E-05 5.614004E-02 -6.207707E-02 -1.972235E+01 2.080580E-01 -5.902000E-03 -0.000000E+00 5.972000E-03
ZONE T = "POP010_IND000"
010 016 3.529049E-05 5.614004E-02 -6.207707E-02 -1.972235E+01 2.080580E-01 -5.902000E-03 -0.000000E+00 5.972000E-03
ZONE T = "POP010_IND000"
010 017 3.529049E-05 5.614004E-02 -6.207707E-02 -1.972235E+01 2.080580E-01 -5.902000E-03 -0.000000E+00 5.972000E-03
ZONE T = "POP010_IND000"
010 018 3.529049E-05 5.614004E-02 -6.207707E-02 -1.972235E+01 2.080580E-01 -5.902000E-03 -0.000000E+00 5.972000E-03
ZONE T = "POP010_IND000"
010 019 3.529049E-05 5.614004E-02 -6.207707E-02 -1.972235E+01 2.080580E-01 -5.902000E-03 -0.000000E+00 5.972000E-03
ZONE T = "POP010_IND000"
010 020 3.529049E-05 5.614004E-02 -6.207707E-02 -1.972235E+01 2.080580E-01 -5.902000E-03 -0.000000E+00 5.972000E-03
ZONE T = "POP010_IND000"
010 021 3.529049E-05 5.614004E-02 -6.207707E-02 -1.972235E+01 2.080580E-01 -5.902000E-03 -0.000000E+00 5.972000E-03
ZONE T = "POP010_IND000"
010 022 3.529049E-05 5.614004E-02 -6.207707E-02 -1.972235E+01 2.080580E-01 -5.902000E-03 -0.000000E+00 5.972000E-03
ZONE T = "POP010_IND000"
010 023 3.529049E-05 5.614004E-02 -6.207707E-02 -1.972235E+01 2.080580E-01 -5.902000E-03 -0.000000E+00 5.972000E-03
ZONE T = "POP010_IND000"
010 024 3.529049E-05 5.614004E-02 -6.207707E-02 -1.972235E+01 2.080580E-01 -5.902000E-03 -0.000000E+00 5.972000E-03
ZONE T = "POP010_IND000"
010 025 3.529049E-05 5.614004E-02 -6.207707E-02 -1.972235E+01 2.080580E-01 -5.902000E-03 -0.000000E+00 5.972000E-03
ZONE T = "POP010_IND000"
010 026 3.529049E-05 5.614004E-02 -6.207707E-02 -1.972235E+01 2.080580E-01 -5.902000E-03 -0.000000E+00 5.972000E-03
ZONE T = "POP010_IND000"
010 027 3.529049E-05 5.614004E-02 -6.207707E-02 -1.972235E+01 2.080580E-01 -5.902000E-03 -0.000000E+00 5.972000E-03
ZONE T = "POP010_IND000"
010 028 3.529049E-05 5.614004E-02 -6.207707E-02 -1.972235E+01 2.080580E-01 -5.902000E-03 -0.000000E+00 5.972000E-03
ZONE T = "POP010_IND000"
010 029 3.529049E-05 5.614004E-02 -6.207707E-02 -1.972235E+01 2.080580E-01 -5.902000E-03 -0.000000E+00 5.972000E-03
ZONE T = "POP010_IND000"
010 030 3.529049E-05 5.614004E-02 -6.207707E-02 -1.972235E+01 2.080580E-01 -5.902000E-03 -0.000000E+00 5.972000E-03
ZONE T = "POP010_IND000"
010 031 3.529049E-05 5.614004E-02 -6.207707E-02 -1.972235E+01 2.080580E-01 -5.902000E-03 -0.000000E+00 5.972000E-03
ZONE T = "POP019_IND000"
019 000 -1.100295E+10 -3.832832E+03 2.323203E+05 -0.000000E+00 1.079665E+08 -1.100272E+10 9.797518E+18 -1.100318E+10
ZONE T = "POP019_IND000"
019 001 1.680889E+12 4.069316E+05 -1.265073E+08 -0.000000E+00 6.034644E+09 1.680763E+12 -8.653184E+25 1.681015E+12
ZONE T = "POP019_IND000"
019 002 1.680889E+12 4.069316E+05 -1.265073E+08 -0.000000E+00 6.034644E+09 1.680763E+12 -8.653184E+25 1.681015E+12
ZONE T = "POP003_IND000"
003 000 -5.955612E+06 -1.670600E+06 1.991988E+06 -0.000000E+00 4.676273E+05 -5.634225E+06 1.981918E+19 -6.276999E+06
ZONE T = "POP003_IND000"
003 001 1.813191E+06 -2.084957E+05 1.719345E+06 -0.000000E+00 2.169088E+05 3.324041E+06 -6.499857E+17 3.023421E+05
ZONE T = "POP003_IND000"
003 002 1.813191E+06 -2.084957E+05 1.719345E+06 -0.000000E+00 2.169088E+05 3.324041E+06 -6.499857E+17 3.023421E+05
ZONE T = "POP003_IND000"
003 003 1.813282E+06 -2.085108E+05 1.719404E+06 -0.000000E+00 2.169150E+05 3.324175E+06 -6.500873E+17 3.023889E+05
ZONE T = "POP003_IND000"
003 004 1.813282E+06 -2.085108E+05 1.719404E+06 -0.000000E+00 2.169150E+05 3.324175E+06 -6.500873E+17 3.023889E+05
ZONE T = "POP003_IND000"
003 005 1.813282E+06 -2.085108E+05 1.719404E+06 -0.000000E+00 2.169150E+05 3.324175E+06 -6.500873E+17 3.023889E+05
ZONE T = "POP003_IND000"
003 006 1.813282E+06 -2.085108E+05 1.719404E+06 -0.000000E+00 2.169150E+05 3.324175E+06 -6.500873E+17 3.023889E+05
ZONE T = "POP003_IND000"
003 007 1.813282E+06 -2.085108E+05 1.719404E+06 -0.000000E+00 2.169150E+05 3.324175E+06 -6.500873E+17 3.023889E+05
ZONE T = "POP003_IND000"
003 008 1.813282E+06 -2.085108E+05 1.719404E+06 -0.000000E+00 2.169150E+05 3.324175E+06 -6.500873E+17 3.023889E+05
ZONE T = "POP003_IND000"
003 009 1.813282E+06 -2.085108E+05 1.719404E+06 -0.000000E+00 2.169150E+05 3.324175E+06 -6.500873E+17 3.023889E+05
ZONE T = "POP003_IND000"
003 010 1.813282E+06 -2.085108E+05 1.719404E+06 -0.000000E+00 2.169150E+05 3.324175E+06 -6.500873E+17 3.023889E+05
ZONE T = "POP003_IND000"
003 011 1.813282E+06 -2.085108E+05 1.719404E+06 -0.000000E+00 2.169150E+05 3.324175E+06 -6.500873E+17 3.023889E+05
ZONE T = "POP003_IND000"
003 012 1.813282E+06 -2.085108E+05 1.719404E+06 -0.000000E+00 2.169150E+05 3.324175E+06 -6.500873E+17 3.023889E+05
ZONE T = "POP003_IND000"
003 013 1.813282E+06 -2.085108E+05 1.719404E+06 -0.000000E+00 2.169150E+05 3.324175E+06 -6.500873E+17 3.023889E+05
ZONE T = "POP003_IND000"
003 014 1.813282E+06 -2.085108E+05 1.719404E+06 -0.000000E+00 2.169150E+05 3.324175E+06 -6.500873E+17 3.023889E+05
ZONE T = "POP003_IND000"
003 015 1.813282E+06 -2.085108E+05 1.719404E+06 -0.000000E+00 2.169150E+05 3.324175E+06 -6.500873E+17 3.023889E+05
ZONE T = "POP003_IND000"
003 016 1.813282E+06 -2.085108E+05 1.719404E+06 -0.000000E+00 2.169150E+05 3.324175E+06 -6.500873E+17 3.023889E+05
ZONE T = "POP003_IND000"
003 017 1.813282E+06 -2.085108E+05 1.719404E+06 -0.000000E+00 2.169150E+05 3.324175E+06 -6.500873E+17 3.023889E+05
ZONE T = "POP003_IND000"
003 018 1.813282E+06 -2.085108E+05 1.719404E+06 -0.000000E+00 2.169150E+05 3.324175E+06 -6.500873E+17 3.023889E+05
ZONE T = "POP003_IND000"
003 019 1.813282E+06 -2.085108E+05 1.719404E+06 -0.000000E+00 2.169150E+05 3.324175E+06 -6.500873E+17 3.023889E+05
ZONE T = "POP003_IND000"
003 020 1.813282E+06 -2.085108E+05 1.719404E+06 -0.000000E+00 2.169150E+05 3.324175E+06 -6.500873E+17 3.023889E+05
ZONE T = "POP003_IND000"
003 021 1.813282E+06 -2.085108E+05 1.719404E+06 -0.000000E+00 2.169150E+05 3.324175E+06 -6.500873E+17 3.023889E+05
ZONE T = "POP003_IND000"
003 022 1.813282E+06 -2.085108E+05 1.719404E+06 -0.000000E+00 2.169150E+05 3.324175E+06 -6.500873E+17 3.023889E+05
ZONE T = "POP003_IND000"
003 023 1.813282E+06 -2.085108E+05 1.719404E+06 -0.000000E+00 2.169150E+05 3.324175E+06 -6.500873E+17 3.023889E+05
ZONE T = "POP003_IND000"
003 024 1.813282E+06 -2.085108E+05 1.719404E+06 -0.000000E+00 2.169150E+05 3.324175E+06 -6.500873E+17 3.023889E+05
ZONE T = "POP003_IND000"
003 025 1.813282E+06 -2.085108E+05 1.719404E+06 -0.000000E+00 2.169150E+05 3.324175E+06 -6.500873E+17 3.023889E+05
ZONE T = "POP003_IND000"
003 026 1.813282E+06 -2.085108E+05 1.719404E+06 -0.000000E+00 2.169150E+05 3.324175E+06 -6.500873E+17 3.023889E+05
ZONE T = "POP003_IND000"
003 027 1.813282E+06 -2.085108E+05 1.719404E+06 -0.000000E+00 2.169150E+05 3.324175E+06 -6.500873E+17 3.023889E+05
ZONE T = "POP003_IND000"
003 028 1.813282E+06 -2.085108E+05 1.719404E+06 -0.000000E+00 2.169150E+05 3.324175E+06 -6.500873E+17 3.023889E+05
ZONE T = "POP003_IND000"
003 029 1.813282E+06 -2.085108E+05 1.719404E+06 -0.000000E+00 2.169150E+05 3.324175E+06 -6.500873E+17 3.023889E+05
ZONE T = "POP003_IND000"
003 030 1.813282E+06 -2.085108E+05 1.719404E+06 -0.000000E+00 2.169150E+05 3.324175E+06 -6.500873E+17 3.023889E+05
ZONE T = "POP003_IND000"
003 031 1.813282E+06 -2.085108E+05 1.719404E+06 -0.000000E+00 2.169150E+05 3.324175E+06 -6.500873E+17 3.023889E+05
ZONE T = "POP004_IND000"
004 000 1.404532E+08 -1.705126E+08 3.822657E+01 -0.000000E+00 7.145812E+06 -3.005941E+07 -9.154900E+17 3.109658E+08
ZONE T = "POP004_IND000"
004 001 1.207220E+06 -2.153520E+04 5.317493E-01 -0.000000E+00 7.627817E+04 1.185685E+06 -1.382427E+10 1.228755E+06
ZONE T = "POP004_IND000"
004 002 1.207220E+06 -2.153520E+04 5.317493E-01 -0.000000E+00 7.627817E+04 1.185685E+06 -1.382427E+10 1.228755E+06
ZONE T = "POP004_IND000"
004 003 1.207220E+06 -2.153520E+04 5.317493E-01 -0.000000E+00 7.627817E+04 1.185685E+06 -1.382427E+10 1.228755E+06
ZONE T = "POP004_IND000"
004 004 1.207220E+06 -2.153520E+04 5.317493E-01 -0.000000E+00 7.627817E+04 1.185685E+06 -1.382427E+10 1.228755E+06
ZONE T = "POP004_IND000"
004 005 1.207220E+06 -2.153520E+04 5.317493E-01 -0.000000E+00 7.627817E+04 1.185685E+06 -1.382427E+10 1.228755E+06
ZONE T = "POP004_IND000"
004 006 1.207220E+06 -2.153520E+04 5.317493E-01 -0.000000E+00 7.627817E+04 1.185685E+06 -1.382427E+10 1.228755E+06
ZONE T = "POP004_IND000"
004 007 1.207220E+06 -2.153520E+04 5.317493E-01 -0.000000E+00 7.627817E+04 1.185685E+06 -1.382427E+10 1.228755E+06
ZONE T = "POP004_IND000"
004 008 1.207220E+06 -2.153520E+04 5.317493E-01 -0.000000E+00 7.627817E+04 1.185685E+06 -1.382427E+10 1.228755E+06
ZONE T = "POP004_IND000"
004 009 1.207220E+06 -2.153520E+04 5.317493E-01 -0.000000E+00 7.627817E+04 1.185685E+06 -1.382427E+10 1.228755E+06
ZONE T = "POP004_IND000"
004 010 1.207220E+06 -2.153520E+04 5.317493E-01 -0.000000E+00 7.627817E+04 1.185685E+06 -1.382427E+10 1.228755E+06
ZONE T = "POP004_IND000"
004 011 1.207220E+06 -2.153520E+04 5.317493E-01 -0.000000E+00 7.627817E+04 1.185685E+06 -1.382427E+10 1.228755E+06
ZONE T = "POP004_IND000"
004 012 1.207220E+06 -2.153520E+04 5.317493E-01 -0.000000E+00 7.627817E+04 1.185685E+06 -1.382427E+10 1.228755E+06
ZONE T = "POP004_IND000"
004 013 1.207220E+06 -2.153520E+04 5.317493E-01 -0.000000E+00 7.627817E+04 1.185685E+06 -1.382427E+10 1.228755E+06
ZONE T = "POP004_IND000"
004 014 1.207220E+06 -2.153520E+04 5.317493E-01 -0.000000E+00 7.627817E+04 1.185685E+06 -1.382427E+10 1.228755E+06
ZONE T = "POP004_IND000"
004 015 1.207220E+06 -2.153520E+04 5.317493E-01 -0.000000E+00 7.627817E+04 1.185685E+06 -1.382427E+10 1.228755E+06
ZONE T = "POP004_IND000"