VARIABLES = "population","individual","x1","x2","x3","objective1","objective2","p1","p2","p3"
ZONE T = "DOE_IND000"
-1 000 3.897638E+00 -1.181102E-01 2.755906E-01 -1.400254E+01 5.907692E+00 4.055118E+00 -1.268680E-01 3.740157E+00
ZONE T = "DOE_IND000"
-1 001 3.543307E-01 -4.921260E+00 1.850394E+00 -7.221713E+00 7.096544E+00 -2.716535E+00 -3.226630E+00 3.425197E+00
ZONE T = "DOE_IND000"
-1 002 -7.480315E-01 4.212598E+00 4.685039E+00 -7.086148E+00 6.084245E+00 8.149606E+00 -1.476329E+01 -9.645669E+00
ZONE T = "DOE_IND000"
-1 003 -1.299213E+00 -2.480315E+00 -1.968504E-01 -1.179185E+01 -2.698459E+00 -3.976378E+00 -6.343420E-01 1.377953E+00
ZONE T = "DOE_IND000"
-1 004 4.330709E-01 9.055118E-01 3.031496E+00 -1.349237E+01 9.666170E+00 4.370079E+00 1.188804E+00 -3.503937E+00
ZONE T = "DOE_IND000"
-1 005 -1.456693E+00 -4.370079E+00 5.000000E+00 -6.629788E+00 1.413000E-03 -8.267720E-01 3.182931E+01 -2.086614E+00
ZONE T = "DOE_IND000"
-1 006 -9.842520E-01 5.905512E-01 3.543307E-01 -1.666205E+01 -7.527750E-01 -3.937000E-02 -2.059550E-01 -1.929134E+00
ZONE T = "DOE_IND000"
-1 007 -1.692913E+00 -3.976378E+00 -1.614173E+00 -8.452056E+00 1.512634E+01 -7.283465E+00 -1.086607E+01 3.897638E+00
ZONE T = "DOE_IND000"
-1 008 -3.110236E+00 4.055118E+00 4.291339E+00 -6.668569E+00 8.006960E+00 5.236220E+00 -5.412397E+01 -1.145669E+01
ZONE T = "DOE_IND000"
-1 009 -1.850394E+00 1.456693E+00 1.968504E-01 -1.369667E+01 3.288214E+00 -1.968500E-01 -5.306010E-01 -3.503937E+00
ZONE T = "DOE_IND000"
-1 010 2.637795E+00 4.448819E+00 -3.346457E+00 -6.838817E+00 7.259251E+00 3.740157E+00 -3.927092E+01 1.535433E+00
ZONE T = "DOE_IND000"
-1 011 2.755906E-01 3.188976E+00 3.897638E+00 -8.924428E+00 1.251003E+01 7.362205E+00 3.425446E+00 -6.811024E+00
ZONE T = "DOE_IND000"
-1 012 -2.874016E+00 3.740157E+00 -8.267717E-01 -8.541403E+00 1.272838E+01 3.937000E-02 8.887193E+00 -5.787402E+00
ZONE T = "DOE_IND000"
-1 013 3.582677E+00 -1.299213E+00 -5.905512E-01 -1.218335E+01 4.118629E+00 1.692913E+00 2.748815E+00 5.472441E+00
ZONE T = "DOE_IND000"
-1 014 2.165354E+00 -4.685039E+00 1.614173E+00 -7.273875E+00 -4.652952E+00 -9.055120E-01 -1.637542E+01 5.236220E+00
ZONE T = "DOE_IND000"
-1 015 2.559055E+00 2.637795E+00 6.692913E-01 -1.059753E+01 -2.225660E-01 5.866142E+00 4.517893E+00 -7.480310E-01
ZONE T = "DOE_IND000"
-1 016 3.976378E+00 3.897638E+00 9.055118E-01 -7.775710E+00 1.279974E+01 8.779528E+00 1.403406E+01 -8.267720E-01
ZONE T = "DOE_IND000"
-1 017 -5.118110E-01 4.133858E+00 -2.007874E+00 -8.335694E+00 4.915429E+00 1.614173E+00 4.248168E+00 -2.637795E+00
ZONE T = "DOE_IND000"
-1 018 -3.503937E+00 3.110236E+00 1.181102E-01 -9.283890E+00 4.643424E+00 -2.755910E-01 -1.287174E+00 -6.732283E+00
ZONE T = "DOE_IND000"
-1 019 1.614173E+00 1.929134E+00 3.425197E+00 -1.060232E+01 8.419960E+00 6.968504E+00 1.066591E+01 -3.740157E+00
ZONE T = "DOE_IND000"
-1 020 -3.897638E+00 -2.637795E+00 2.165354E+00 -8.954624E+00 3.744759E+00 -4.370079E+00 2.226238E+01 -3.425197E+00
ZONE T = "DOE_IND000"
-1 021 7.480315E-01 3.503937E+00 -1.456693E+00 -9.565856E+00 2.547207E+00 2.795276E+00 -3.818073E+00 -1.299213E+00
ZONE T = "DOE_IND000"
-1 022 4.291339E+00 -2.007874E+00 2.086614E+00 -9.480542E+00 1.222176E+00 4.370079E+00 -1.797924E+01 4.212598E+00
ZONE T = "DOE_IND000"
-1 023 4.370079E+00 3.661417E+00 1.062992E+00 -7.862322E+00 1.206083E+01 9.094488E+00 1.700860E+01 -3.543310E-01
ZONE T = "DOE_IND000"
-1 024 -4.763780E+00 4.763780E+00 -3.267717E+00 -5.748584E+00 1.119536E+01 -3.267717E+00 7.415624E+01 -6.259843E+00
ZONE T = "DOE_IND000"
-1 025 -3.425197E+00 4.330709E-01 4.606299E+00 -8.977323E+00 2.237108E+00 1.614173E+00 -6.832768E+00 -8.464567E+00
ZONE T = "DOE_IND000"
-1 026 -4.133858E+00 -1.535433E+00 3.110236E+00 -9.136853E+00 -5.481230E-01 -2.559055E+00 1.974149E+01 -5.708661E+00
ZONE T = "DOE_IND000"
-1 027 1.692913E+00 1.062992E+00 -7.480315E-01 -1.441538E+01 1.045089E+00 2.007874E+00 -1.346123E+00 1.377953E+00
ZONE T = "DOE_IND000"
-1 028 4.606299E+00 -3.267717E+00 1.456693E+00 -8.121132E+00 7.519757E+00 2.795276E+00 -2.192626E+01 6.417323E+00
ZONE T = "DOE_IND000"
-1 029 -3.346457E+00 3.937008E-02 8.267717E-01 -1.359482E+01 7.345574E+00 -2.480315E+00 -1.089270E-01 -4.212598E+00
ZONE T = "DOE_IND000"
-1 030 -3.661417E+00 -4.448819E+00 2.795276E+00 -6.655434E+00 1.334120E+01 -5.314961E+00 4.553220E+01 -2.007874E+00
ZONE T = "DOE_IND000"
-1 031 4.527559E+00 1.614173E+00 -1.062992E+00 -1.061778E+01 -8.126355E+00 5.078740E+00 -7.768628E+00 3.976378E+00
ZONE T = "DOE_IND000"
-1 032 -9.055118E-01 -3.897638E+00 -1.181102E-01 -9.076580E+00 -1.619250E+00 -4.921260E+00 -4.168530E-01 3.110236E+00
ZONE T = "DOE_IND000"
-1 033 -1.181102E-01 4.842520E+00 -4.055118E+00 -6.622795E+00 1.224328E+01 6.692910E-01 2.319329E+00 -9.055120E-01
ZONE T = "DOE_IND000"
-1 034 -4.527559E+00 1.850394E+00 1.220472E+00 -1.017877E+01 1.622269E+01 -1.456693E+00 -1.022483E+01 -7.598425E+00
ZONE T = "DOE_IND000"
-1 035 2.716535E+00 -2.755906E-01 -2.401575E+00 -1.195848E+01 4.350224E+00 3.937000E-02 1.797943E+00 5.393701E+00
ZONE T = "DOE_IND000"
-1 036 5.118110E-01 -3.031496E+00 -9.055118E-01 -1.071825E+01 -7.908200E-01 -3.425197E+00 1.404950E+00 4.448819E+00
ZONE T = "DOE_IND000"
-1 037 -3.267717E+00 1.299213E+00 -2.480315E+00 -1.066158E+01 9.415935E+00 -4.448819E+00 1.053007E+01 -2.086614E+00
ZONE T = "DOE_IND000"
-1 038 -2.795276E+00 -1.377953E+00 -5.118110E-01 -1.281463E+01 2.305280E-01 -4.685039E+00 -1.971372E+00 -9.055120E-01
ZONE T = "DOE_IND000"
-1 039 -3.740157E+00 4.527559E+00 -1.692913E+00 -6.892867E+00 3.313344E+00 -9.055120E-01 2.866743E+01 -6.574803E+00
ZONE T = "DOE_IND000"
-1 040 -2.716535E+00 3.582677E+00 4.527559E+00 -7.220311E+00 3.275215E+00 5.393701E+00 -4.406433E+01 -1.082677E+01
ZONE T = "DOE_IND000"
-1 041 3.937008E-02 -3.188976E+00 1.377953E+00 -1.027610E+01 2.157300E+00 -1.771654E+00 -1.730020E-01 1.850394E+00
ZONE T = "DOE_IND000"
-1 042 2.795276E+00 6.692913E-01 -3.582677E+00 -1.045209E+01 3.461690E+00 -1.181100E-01 -6.702665E+00 5.708661E+00
ZONE T = "DOE_IND000"
-1 043 -1.535433E+00 -2.401575E+00 2.244094E+00 -1.083684E+01 -1.930164E+00 -1.692913E+00 8.275003E+00 -1.377953E+00
ZONE T = "DOE_IND000"
-1 044 4.921260E+00 -4.842520E+00 -3.937008E-02 -6.310028E+00 4.005214E+00 3.937000E-02 9.382400E-01 9.803150E+00
ZONE T = "DOE_IND000"
-1 045 6.692913E-01 -3.937008E-02 3.740157E+00 -1.347789E+01 9.575484E+00 4.370079E+00 -9.855300E-02 -3.031496E+00
ZONE T = "DOE_IND000"
-1 046 -2.401575E+00 2.755906E-01 -3.661417E+00 -1.096457E+01 5.128389E+00 -5.787402E+00 2.423314E+00 9.842520E-01
ZONE T = "DOE_IND000"
-1 047 1.771654E+00 4.606299E+00 -3.425197E+00 -6.899316E+00 -4.062870E-01 2.952756E+00 -2.795223E+01 5.905510E-01
ZONE T = "DOE_IND000"
-1 048 -5.000000E+00 -3.818898E+00 -4.763780E+00 -5.790355E+00 1.207239E+01 -1.358268E+01 -9.096193E+01 3.582677E+00
ZONE T = "DOE_IND000"
-1 049 -2.559055E+00 1.968504E-01 -4.842520E+00 -9.778505E+00 8.083779E+00 -7.204724E+00 2.439424E+00 2.086614E+00
ZONE T = "DOE_IND000"
-1 050 -4.921260E+00 1.181102E-01 -2.874016E+00 -9.361554E+00 1.197761E+01 -7.677165E+00 1.670525E+00 -2.165354E+00
ZONE T = "DOE_IND000"
-1 051 2.244094E+00 3.346457E+00 -5.000000E+00 -7.469088E+00 5.367821E+00 5.905510E-01 -3.754883E+01 3.897638E+00
ZONE T = "DOE_IND000"
-1 052 -3.031496E+00 -2.244094E+00 -1.141732E+00 -1.074689E+01 3.218890E+00 -6.417323E+00 -7.767163E+00 3.543310E-01
ZONE T = "DOE_IND000"
-1 053 -4.212598E+00 2.007874E+00 1.299213E+00 -1.013073E+01 1.804982E+01 -9.055120E-01 -1.098922E+01 -7.519685E+00
ZONE T = "DOE_IND000"
-1 054 -8.267717E-01 -1.929134E+00 -9.842520E-01 -1.305668E+01 -7.121898E+00 -3.740157E+00 -1.569836E+00 2.086614E+00
ZONE T = "DOE_IND000"
-1 055 -1.614173E+00 -3.425197E+00 -2.559055E+00 -8.941638E+00 1.192459E+01 -7.598425E+00 -1.414866E+01 4.370079E+00
ZONE T = "DOE_IND000"
-1 056 -5.905512E-01 1.220472E+00 -3.740157E+00 -1.217765E+01 4.101524E+00 -3.110236E+00 2.695724E+00 1.929134E+00
ZONE T = "DOE_IND000"
-1 057 -2.086614E+00 2.559055E+00 -3.818898E+00 -9.154075E+00 4.607254E+00 -3.346457E+00 2.039200E+01 -8.267720E-01
ZONE T = "DOE_IND000"
-1 058 -4.606299E+00 -5.000000E+00 5.118110E-01 -6.227060E+00 1.305201E+01 -9.094488E+00 1.178777E+01 -1.181100E-01
ZONE T = "DOE_IND000"
-1 059 -3.188976E+00 -1.968504E-01 -1.535433E+00 -1.261556E+01 2.227314E+00 -4.921260E+00 -9.638700E-01 -1.456693E+00
ZONE T = "DOE_IND000"
-1 060 1.968504E-01 8.267717E-01 4.330709E-01 -1.673406E+01 4.764750E+00 1.456693E+00 7.048200E-02 -1.062992E+00
ZONE T = "DOE_IND000"
-1 061 -2.322835E+00 1.377953E+00 4.370079E+00 -9.825973E+00 1.407700E+01 3.425197E+00 -1.398756E+01 -8.070866E+00
ZONE T = "DOE_IND000"
-1 062 5.905512E-01 -8.267717E-01 -4.606299E+00 -1.208312E+01 4.954212E+00 -4.842520E+00 2.249030E+00 6.023622E+00
ZONE T = "DOE_IND000"
-1 063 2.952756E+00 1.141732E+00 3.661417E+00 -9.952872E+00 9.543969E+00 7.755906E+00 1.234358E+01 -1.850394E+00
ZONE T = "DOE_IND000"
-1 064 4.763780E+00 2.480315E+00 -2.165354E+00 -8.592087E+00 1.771648E+01 5.078740E+00 -2.558512E+01 4.448819E+00
ZONE T = "DOE_IND000"
-1 065 1.220472E+00 -4.133858E+00 7.480315E-01 -8.539195E+00 6.962824E+00 -2.165354E+00 -3.774013E+00 4.606299E+00
ZONE T = "DOE_IND000"
-1 066 1.929134E+00 -3.740157E+00 3.582677E+00 -7.859153E+00 1.135838E+01 1.771654E+00 -2.584996E+01 2.086614E+00
ZONE T = "DOE_IND000"
-1 067 1.850394E+00 4.921260E+00 -4.448819E+00 -6.147252E+00 7.384239E+00 2.322835E+00 -4.051214E+01 1.377953E+00
ZONE T = "DOE_IND000"
-1 068 2.322835E+00 3.818898E+00 -4.685039E+00 -7.075662E+00 6.714950E-01 1.456693E+00 -4.155943E+01 3.188976E+00
ZONE T = "DOE_IND000"
-1 069 -1.377953E+00 -2.716535E+00 1.929134E+00 -1.057353E+01 1.950922E+00 -2.165354E+00 7.221245E+00 -5.905510E-01
ZONE T = "DOE_IND000"
-1 070 -3.818898E+00 -3.110236E+00 4.212598E+00 -7.243177E+00 1.419125E+01 -2.716535E+00 5.003587E+01 -4.921260E+00
ZONE T = "DOE_IND000"
-1 071 -2.480315E+00 -3.346457E+00 -2.086614E+00 -8.891239E+00 3.765726E+00 -7.913386E+00 -1.731945E+01 2.952756E+00
ZONE T = "DOE_IND000"
-1 072 -4.370079E+00 -2.795276E+00 -2.716535E+00 -8.129370E+00 -2.543358E+00 -9.881890E+00 -3.318404E+01 1.141732E+00
ZONE T = "DOE_IND000"
-1 073 1.299213E+00 2.244094E+00 -1.377953E+00 -1.185912E+01 1.222119E+00 2.165354E+00 -4.017498E+00 4.330710E-01
ZONE T = "DOE_IND000"
-1 074 4.055118E+00 3.543307E-01 3.188976E+00 -9.694179E+00 7.243576E+00 7.598425E+00 4.582090E+00 5.118110E-01
ZONE T = "DOE_IND000"
-1 075 -3.937008E-02 -4.527559E+00 4.763780E+00 -6.729516E+00 1.667309E+01 1.968500E-01 8.491450E-01 -2.755910E-01
ZONE T = "DOE_IND000"
-1 076 -2.244094E+00 -3.543307E-01 -3.110236E+00 -1.169530E+01 1.422426E+01 -5.708661E+00 -2.473109E+00 1.220472E+00
ZONE T = "DOE_IND000"
-1 077 -3.976378E+00 -4.055118E+00 4.448819E+00 -6.211534E+00 1.286390E+01 -3.582677E+00 7.173579E+01 -4.370079E+00
ZONE T = "DOE_IND000"
-1 078 3.031496E+00 -9.055118E-01 -3.503937E+00 -1.016020E+01 8.817105E+00 -1.377953E+00 9.618502E+00 7.440945E+00
ZONE T = "DOE_IND000"
-1 079 -2.637795E+00 -2.322835E+00 4.921260E+00 -8.318828E+00 9.297620E+00 -3.937000E-02 3.015336E+01 -5.236220E+00
ZONE T = "DOE_IND000"
-1 080 2.086614E+00 -2.952756E+00 -6.692913E-01 -1.031018E+01 2.222708E+00 -1.535433E+00 4.123680E+00 5.708661E+00
ZONE T = "DOE_IND000"
-1 081 -1.968504E-01 -3.582677E+00 2.952756E+00 -8.830469E+00 3.719589E+00 -8.267720E-01 2.082435E+00 4.330710E-01
ZONE T = "DOE_IND000"
-1 082 5.000000E+00 9.842520E-01 -2.795276E+00 -9.137197E+00 7.136545E+00 3.188976E+00 -1.375628E+01 6.811024E+00
ZONE T = "DOE_IND000"
-1 083 9.055118E-01 -2.874016E+00 2.874016E+00 -9.909271E+00 8.958183E+00 9.055120E-01 -7.479497E+00 9.055120E-01
ZONE T = "DOE_IND000"
-1 084 3.740157E+00 3.267717E+00 -3.897638E+00 -7.319385E+00 8.898002E+00 3.110236E+00 -4.763605E+01 4.370079E+00
ZONE T = "DOE_IND000"
-1 085 2.007874E+00 -1.220472E+00 2.007874E+00 -1.250078E+01 9.529195E+00 2.795276E+00 -4.920406E+00 1.220472E+00
ZONE T = "DOE_IND000"
-1 086 -2.007874E+00 -1.062992E+00 3.267717E+00 -1.137798E+01 -5.786698E+00 1.968500E-01 6.974465E+00 -4.212598E+00
ZONE T = "DOE_IND000"
-1 087 1.141732E+00 3.425197E+00 9.842520E-01 -9.760220E+00 1.688837E+01 5.551181E+00 3.849073E+00 -3.267717E+00
ZONE T = "DOE_IND000"
-1 088 3.188976E+00 4.685039E+00 2.559055E+00 -6.657188E+00 1.171309E+01 1.043307E+01 3.823351E+01 -4.055118E+00
ZONE T = "DOE_IND000"
-1 089 3.818898E+00 -2.559055E+00 -4.370079E+00 -7.619398E+00 3.970449E+00 -3.110236E+00 4.270777E+01 1.074803E+01
ZONE T = "DOE_IND000"
-1 090 -4.448819E+00 2.322835E+00 3.976378E+00 -7.646157E+00 7.886825E+00 1.850394E+00 -4.109137E+01 -1.074803E+01
ZONE T = "DOE_IND000"
-1 091 8.267717E-01 2.401575E+00 2.401575E+00 -1.108697E+01 1.716162E+01 5.629921E+00 4.768456E+00 -3.976378E+00
ZONE T = "DOE_IND000"
-1 092 -1.062992E+00 -1.456693E+00 2.480315E+00 -1.259758E+01 1.725591E+00 -3.937000E-02 3.840651E+00 -2.086614E+00
ZONE T = "DOE_IND000"
-1 093 2.401575E+00 2.874016E+00 4.055118E+00 -8.428782E+00 4.027946E+00 9.330709E+00 2.798909E+01 -4.527559E+00
ZONE T = "DOE_IND000"
-1 094 -4.055118E+00 -6.692913E-01 -4.133858E+00 -8.723283E+00 3.685157E+00 -8.858268E+00 -1.121952E+01 7.480310E-01
ZONE T = "DOE_IND000"
-1 095 4.133858E+00 3.031496E+00 -2.637795E+00 -8.063787E+00 1.710360E+01 4.527559E+00 -3.305626E+01 3.740157E+00
ZONE T = "DOE_IND000"
-1 096 1.535433E+00 -5.905512E-01 -1.299213E+00 -1.471325E+01 -4.088363E+00 -3.543310E-01 1.178063E+00 3.425197E+00
ZONE T = "DOE_IND000"
-1 097 -1.220472E+00 1.771654E+00 1.141732E+00 -1.306372E+01 6.938490E-01 1.692913E+00 -2.468716E+00 -4.133858E+00
ZONE T = "DOE_IND000"
-1 098 -2.165354E+00 2.165354E+00 -3.031496E+00 -1.016714E+01 4.123245E+00 -3.031496E+00 1.421396E+01 -1.299213E+00
ZONE T = "DOE_IND000"
-1 099 -2.952756E+00 2.952756E+00 2.637795E+00 -8.867964E+00 4.549347E+00 2.637795E+00 -2.299832E+01 -8.543307E+00
ZONE T = "DOE_IND000"
-1 100 -4.685039E+00 2.795276E+00 -2.755906E-01 -9.060441E+00 2.999467E+00 -2.165354E+00 3.609127E+00 -7.204724E+00
ZONE T = "DOE_IND000"
-1 101 -1.929134E+00 -4.763780E+00 1.692913E+00 -7.215606E+00 -6.963191E+00 -5.000000E+00 1.555782E+01 1.141732E+00
ZONE T = "DOE_IND000"
-1 102 1.456693E+00 -3.661417E+00 -2.952756E+00 -8.450427E+00 8.559077E+00 -5.157480E+00 1.574870E+01 8.070866E+00
ZONE T = "DOE_IND000"
-1 103 4.448819E+00 -2.165354E+00 -4.291339E+00 -7.541203E+00 1.446421E+01 -2.007874E+00 4.133962E+01 1.090551E+01
ZONE T = "DOE_IND000"
-1 104 -3.543307E-01 3.976378E+00 -1.850394E+00 -8.659962E+00 4.809397E+00 1.771654E+00 2.607117E+00 -2.480315E+00
ZONE T = "DOE_IND000"
-1 105 3.267717E+00 -1.614173E+00 1.535433E+00 -1.122889E+01 5.881345E+00 3.188976E+00 -8.098888E+00 3.346457E+00
ZONE T = "DOE_IND000"
-1 106 -1.141732E+00 -4.212598E+00 -3.976378E+00 -7.316642E+00 5.092867E+00 -9.330709E+00 -1.912502E+01 7.047244E+00
ZONE T = "DOE_IND000"
-1 107 -4.842520E+00 -4.606299E+00 -1.771654E+00 -6.353899E+00 1.129422E+01 -1.122047E+01 -3.951867E+01 1.535433E+00
ZONE T = "DOE_IND000"
-1 108 9.842520E-01 -5.118110E-01 4.842520E+00 -1.178624E+01 1.073229E+01 5.314961E+00 -2.439424E+00 -3.346457E+00
ZONE T = "DOE_IND000"
-1 109 1.062992E+00 -3.503937E+00 3.818898E+00 -8.354612E+00 1.169378E+01 1.377953E+00 -1.422409E+01 7.480310E-01
ZONE T = "DOE_IND000"
-1 110 3.503937E+00 -4.330709E-01 1.771654E+00 -1.187917E+01 -2.995670E+00 4.842520E+00 -2.688401E+00 2.165354E+00
ZONE T = "DOE_IND000"
-1 111 3.425197E+00 5.000000E+00 4.133858E+00 -5.707696E+00 1.438025E+01 1.255906E+01 7.079639E+01 -5.708661E+00
ZONE T = "DOE_IND000"
-1 112 3.661417E+00 2.716535E+00 -1.929134E+00 -9.153620E+00 2.866625E+00 4.448819E+00 -1.918788E+01 2.874016E+00
ZONE T = "DOE_IND000"
-1 113 -4.291339E+00 -7.480315E-01 3.503937E+00 -9.068657E+00 2.934096E+00 -1.535433E+00 1.124784E+01 -7.047244E+00
ZONE T = "DOE_IND000"
-1 114 1.181102E-01 -1.692913E+00 -2.322835E+00 -1.274979E+01 8.793877E+00 -3.897638E+00 4.644520E-01 4.133858E+00
ZONE T = "DOE_IND000"
-1 115 4.685039E+00 -1.771654E+00 -1.220472E+00 -1.017564E+01 8.366947E+00 1.692913E+00 1.013025E+01 7.677165E+00
ZONE T = "DOE_IND000"
-1 116 3.110236E+00 -1.141732E+00 2.322835E+00 -1.111409E+01 -4.451053E+00 4.291339E+00 -8.248518E+00 1.929134E+00
ZONE T = "DOE_IND000"
-1 117 2.874016E+00 4.291339E+00 3.346457E+00 -6.927102E+00 -2.078460E-01 1.051181E+01 4.127310E+01 -4.763780E+00
ZONE T = "DOE_IND000"
-1 118 2.480315E+00 -9.842520E-01 -2.244094E+00 -1.199006E+01 7.826922E+00 -7.480310E-01 5.478407E+00 5.708661E+00
ZONE T = "DOE_IND000"
-1 119 -2.755906E-01 -2.086614E+00 5.905512E-01 -1.304522E+01 2.065570E+00 -1.771654E+00 3.395970E-01 1.220472E+00
ZONE T = "DOE_IND000"
-1 120 -6.692913E-01 7.480315E-01 -4.330709E-01 -1.659365E+01 2.179856E+00 -3.543310E-01 2.168170E-01 -9.842520E-01
ZONE T = "DOE_IND000"
-1 121 -3.582677E+00 -1.850394E+00 -3.543307E-01 -1.132486E+01 -1.761770E-01 -5.787402E+00 -2.348987E+00 -1.377953E+00
ZONE T = "DOE_IND000"
-1 122 -4.330709E-01 1.692913E+00 3.937008E-02 -1.417765E+01 -3.245954E+00 1.299213E+00 -2.886400E-02 -2.165354E+00
ZONE T = "DOE_IND000"
-1 123 4.212598E+00 5.118110E-01 -3.188976E+00 -9.521250E+00 -2.963580E-01 1.535433E+00 -6.875606E+00 6.889764E+00
ZONE T = "DOE_IND000"
-1 124 4.842520E+00 4.370079E+00 -4.527559E+00 -5.553652E+00 2.220264E+01 4.685039E+00 -9.581307E+01 5.000000E+00
ZONE T = "DOE_IND000"
-1 125 1.377953E+00 -4.291339E+00 -4.212598E+00 -7.063744E+00 1.550080E+01 -7.125984E+00 2.491020E+01 9.881890E+00
ZONE T = "DOE_IND000"
-1 126 -1.771654E+00 1.535433E+00 2.716535E+00 -1.161450E+01 1.087376E+01 2.480315E+00 -7.389670E+00 -6.023622E+00
ZONE T = "DOE_IND000"
-1 127 3.346457E+00 2.086614E+00 -4.921260E+00 -7.977452E+00 9.530090E+00 5.118110E-01 -3.436400E+01 6.181102E+00
ZONE T = "POP000_IND000"
000 000 -1.535433E+00 -2.401575E+00 2.244094E+00 -1.083684E+01 -1.930164E+00 -1.692913E+00 8.275003E+00 -1.377953E+00
ZONE T = "POP000_IND000"
000 001 3.897638E+00 -1.181102E-01 2.755906E-01 -1.400254E+01 5.907692E+00 4.055118E+00 -1.268680E-01 3.740157E+00
ZONE T = "POP000_IND000"
000 002 4.291339E+00 -2.007874E+00 2.086614E+00 -9.480542E+00 1.222176E+00 4.370079E+00 -1.797924E+01 4.212598E+00
ZONE T = "POP000_IND000"
000 003 2.874016E+00 4.291339E+00 3.346457E+00 -6.927102E+00 -2.078460E-01 1.051181E+01 4.127310E+01 -4.763780E+00
ZONE T = "POP000_IND000"
000 004 2.874016E+00 4.291339E+00 3.346457E+00 -6.927102E+00 -2.078460E-01 1.051181E+01 4.127310E+01 -4.763780E+00
ZONE T = "POP000_IND000"
000 005 3.110236E+00 -1.141732E+00 2.322835E+00 -1.111409E+01 -4.451053E+00 4.291339E+00 -8.248518E+00 1.929134E+00
ZONE T = "POP000_IND000"
000 006 -3.188976E+00 -1.968504E-01 -1.535433E+00 -1.261556E+01 2.227314E+00 -4.921260E+00 -9.638700E-01 -1.456693E+00
ZONE T = "POP000_IND000"
000 007 2.007874E+00 -1.220472E+00 2.007874E+00 -1.250078E+01 9.529195E+00 2.795276E+00 -4.920406E+00 1.220472E+00
ZONE T = "POP000_IND000"
000 008 4.330709E-01 9.055118E-01 3.031496E+00 -1.349237E+01 9.666170E+00 4.370079E+00 1.188804E+00 -3.503937E+00
ZONE T = "POP000_IND000"
000 009 -1.299213E+00 -2.480315E+00 -1.968504E-01 -1.179185E+01 -2.698459E+00 -3.976378E+00 -6.343420E-01 1.377953E+00
ZONE T = "POP000_IND000"
000 010 2.007874E+00 -1.220472E+00 2.007874E+00 -1.250078E+01 9.529195E+00 2.795276E+00 -4.920406E+00 1.220472E+00
ZONE T = "POP000_IND000"
000 011 1.692913E+00 1.062992E+00 -7.480315E-01 -1.441538E+01 1.045089E+00 2.007874E+00 -1.346123E+00 1.377953E+00
ZONE T = "POP000_IND000"
000 012 2.480315E+00 -9.842520E-01 -2.244094E+00 -1.199006E+01 7.826922E+00 -7.480310E-01 5.478407E+00 5.708661E+00
ZONE T = "POP000_IND000"
000 013 2.480315E+00 -9.842520E-01 -2.244094E+00 -1.199006E+01 7.826922E+00 -7.480310E-01 5.478407E+00 5.708661E+00
ZONE T = "POP000_IND000"
000 014 2.480315E+00 -9.842520E-01 -2.244094E+00 -1.199006E+01 7.826922E+00 -7.480310E-01 5.478407E+00 5.708661E+00
ZONE T = "POP000_IND000"
000 015 2.874016E+00 4.291339E+00 3.346457E+00 -6.927102E+00 -2.078460E-01 1.051181E+01 4.127310E+01 -4.763780E+00
ZONE T = "POP000_IND000"
000 016 -1.299213E+00 -2.480315E+00 -1.968504E-01 -1.179185E+01 -2.698459E+00 -3.976378E+00 -6.343420E-01 1.377953E+00
ZONE T = "POP000_IND000"
000 017 3.267717E+00 -1.614173E+00 1.535433E+00 -1.122889E+01 5.881345E+00 3.188976E+00 -8.098888E+00 3.346457E+00
ZONE T = "POP000_IND000"
000 018 2.874016E+00 4.291339E+00 3.346457E+00 -6.927102E+00 -2.078460E-01 1.051181E+01 4.127310E+01 -4.763780E+00
ZONE T = "POP000_IND000"
000 019 -4.370079E+00 -2.795276E+00 -2.716535E+00 -8.129370E+00 -2.543358E+00 -9.881890E+00 -3.318404E+01 1.141732E+00
ZONE T = "POP000_IND000"
000 020 -3.582677E+00 -1.850394E+00 -3.543307E-01 -1.132486E+01 -1.761770E-01 -5.787402E+00 -2.348987E+00 -1.377953E+00
ZONE T = "POP000_IND000"
000 021 -9.055118E-01 -3.897638E+00 -1.181102E-01 -9.076580E+00 -1.619250E+00 -4.921260E+00 -4.168530E-01 3.110236E+00
ZONE T = "POP000_IND000"
000 022 -1.062992E+00 -1.456693E+00 2.480315E+00 -1.259758E+01 1.725591E+00 -3.937000E-02 3.840651E+00 -2.086614E+00
ZONE T = "POP000_IND000"
000 023 4.212598E+00 5.118110E-01 -3.188976E+00 -9.521250E+00 -2.963580E-01 1.535433E+00 -6.875606E+00 6.889764E+00
ZONE T = "POP000_IND000"
000 024 -3.582677E+00 -1.850394E+00 -3.543307E-01 -1.132486E+01 -1.761770E-01 -5.787402E+00 -2.348987E+00 -1.377953E+00
ZONE T = "POP000_IND000"
000 025 -1.377953E+00 -2.716535E+00 1.929134E+00 -1.057353E+01 1.950922E+00 -2.165354E+00 7.221245E+00 -5.905510E-01
ZONE T = "POP000_IND000"
000 026 -8.267717E-01 -1.929134E+00 -9.842520E-01 -1.305668E+01 -7.121898E+00 -3.740157E+00 -1.569836E+00 2.086614E+00
ZONE T = "POP000_IND000"
000 027 2.322835E+00 3.818898E+00 -4.685039E+00 -7.075662E+00 6.714950E-01 1.456693E+00 -4.155943E+01 3.188976E+00
ZONE T = "POP000_IND000"
000 028 -2.401575E+00 2.755906E-01 -3.661417E+00 -1.096457E+01 5.128389E+00 -5.787402E+00 2.423314E+00 9.842520E-01
ZONE T = "POP000_IND000"
000 029 -1.299213E+00 -2.480315E+00 -1.968504E-01 -1.179185E+01 -2.698459E+00 -3.976378E+00 -6.343420E-01 1.377953E+00
ZONE T = "POP000_IND000"
000 030 -4.133858E+00 -1.535433E+00 3.110236E+00 -9.136853E+00 -5.481230E-01 -2.559055E+00 1.974149E+01 -5.708661E+00
ZONE T = "POP000_IND000"
000 031 1.771654E+00 4.606299E+00 -3.425197E+00 -6.899316E+00 -4.062870E-01 2.952756E+00 -2.795223E+01 5.905510E-01
ZONE T = "POP000_IND000"
000 032 5.118110E-01 -3.031496E+00 -9.055118E-01 -1.071825E+01 -7.908200E-01 -3.425197E+00 1.404950E+00 4.448819E+00
ZONE T = "POP000_IND000"
000 033 -1.850394E+00 1.456693E+00 1.968504E-01 -1.369667E+01 3.288214E+00 -1.968500E-01 -5.306010E-01 -3.503937E+00
ZONE T = "POP000_IND000"
000 034 4.291339E+00 -2.007874E+00 2.086614E+00 -9.480542E+00 1.222176E+00 4.370079E+00 -1.797924E+01 4.212598E+00
ZONE T = "POP000_IND000"
000 035 -1.535433E+00 -2.401575E+00 2.244094E+00 -1.083684E+01 -1.930164E+00 -1.692913E+00 8.275003E+00 -1.377953E+00
ZONE T = "POP000_IND000"
000 036 4.212598E+00 5.118110E-01 -3.188976E+00 -9.521250E+00 -2.963580E-01 1.535433E+00 -6.875606E+00 6.889764E+00
ZONE T = "POP000_IND000"
000 037 -3.031496E+00 -2.244094E+00 -1.141732E+00 -1.074689E+01 3.218890E+00 -6.417323E+00 -7.767163E+00 3.543310E-01
ZONE T = "POP000_IND000"
000 038 -5.905512E-01 1.220472E+00 -3.740157E+00 -1.217765E+01 4.101524E+00 -3.110236E+00 2.695724E+00 1.929134E+00
ZONE T = "POP000_IND000"
000 039 6.692913E-01 -3.937008E-02 3.740157E+00 -1.347789E+01 9.575484E+00 4.370079E+00 -9.855300E-02 -3.031496E+00
ZONE T = "POP000_IND000"
000 040 1.535433E+00 -5.905512E-01 -1.299213E+00 -1.471325E+01 -4.088363E+00 -3.543310E-01 1.178063E+00 3.425197E+00
ZONE T = "POP000_IND000"
000 041 3.897638E+00 -1.181102E-01 2.755906E-01 -1.400254E+01 5.907692E+00 4.055118E+00 -1.268680E-01 3.740157E+00
ZONE T = "POP000_IND000"
000 042 1.535433E+00 -5.905512E-01 -1.299213E+00 -1.471325E+01 -4.088363E+00 -3.543310E-01 1.178063E+00 3.425197E+00
ZONE T = "POP000_IND000"
000 043 -1.299213E+00 -2.480315E+00 -1.968504E-01 -1.179185E+01 -2.698459E+00 -3.976378E+00 -6.343420E-01 1.377953E+00
ZONE T = "POP000_IND000"
000 044 -6.692913E-01 7.480315E-01 -4.330709E-01 -1.659365E+01 2.179856E+00 -3.543310E-01 2.168170E-01 -9.842520E-01
ZONE T = "POP000_IND000"
000 045 4.291339E+00 -2.007874E+00 2.086614E+00 -9.480542E+00 1.222176E+00 4.370079E+00 -1.797924E+01 4.212598E+00
ZONE T = "POP000_IND000"
000 046 -9.055118E-01 -3.897638E+00 -1.181102E-01 -9.076580E+00 -1.619250E+00 -4.921260E+00 -4.168530E-01 3.110236E+00
ZONE T = "POP000_IND000"
000 047 2.322835E+00 3.818898E+00 -4.685039E+00 -7.075662E+00 6.714950E-01 1.456693E+00 -4.155943E+01 3.188976E+00
ZONE T = "POP001_IND000"
001 000 -3.582677E+00 -1.850394E+00 -3.543307E-01 -1.132486E+01 -1.761770E-01 -5.787402E+00 -2.348987E+00 -1.377953E+00
ZONE T = "POP001_IND000"
001 001 -1.299213E+00 -2.480315E+00 -1.968504E-01 -1.179185E+01 -2.698459E+00 -3.976378E+00 -6.343420E-01 1.377953E+00
ZONE T = "POP001_IND000"
001 002 2.007874E+00 -1.220472E+00 2.007874E+00 -1.250078E+01 9.529195E+00 2.795276E+00 -4.920406E+00 1.220472E+00
ZONE T = "POP001_IND000"
001 003 -3.031496E+00 -2.244094E+00 -1.141732E+00 -1.074689E+01 3.218890E+00 -6.417323E+00 -7.767163E+00 3.543310E-01
ZONE T = "POP001_IND000"
001 004 -4.133858E+00 -1.535433E+00 4.105768E-01 -1.141664E+01 2.663844E+00 -5.258715E+00 2.606039E+00 -3.009002E+00
ZONE T = "POP001_IND000"
001 005 1.535433E+00 -5.905512E-01 -1.299213E+00 -1.471325E+01 -4.088363E+00 -3.543310E-01 1.178063E+00 3.425197E+00
ZONE T = "POP001_IND000"
001 006 -1.299213E+00 -2.480315E+00 -1.968504E-01 -1.179185E+01 -2.698459E+00 -3.976378E+00 -6.343420E-01 1.377953E+00
ZONE T = "POP001_IND000"
001 007 -3.031496E+00 -2.244094E+00 -1.141732E+00 -1.074689E+01 3.218890E+00 -6.417323E+00 -7.767163E+00 3.543310E-01
ZONE T = "POP001_IND000"
001 008 2.874016E+00 4.291339E+00 3.346457E+00 -6.927102E+00 -2.078460E-01 1.051181E+01 4.127310E+01 -4.763780E+00
ZONE T = "POP001_IND000"
001 009 2.480315E+00 -9.842520E-01 -2.244094E+00 -1.199006E+01 7.826922E+00 -7.480310E-01 5.478407E+00 5.708661E+00
ZONE T = "POP001_IND000"
001 010 -3.031496E+00 -2.244094E+00 -1.141732E+00 -1.074689E+01 3.218890E+00 -6.417323E+00 -7.767163E+00 3.543310E-01
ZONE T = "POP001_IND000"
001 011 3.897638E+00 -1.181102E-01 2.755906E-01 -1.400254E+01 5.907692E+00 4.055118E+00 -1.268680E-01 3.740157E+00
ZONE T = "POP001_IND000"
001 012 3.267717E+00 -1.614173E+00 1.535433E+00 -1.122889E+01 5.881345E+00 3.188976E+00 -8.098888E+00 3.346457E+00
ZONE T = "POP001_IND000"
001 013 2.322835E+00 3.818898E+00 -4.685039E+00 -7.075662E+00 6.714950E-01 1.456693E+00 -4.155943E+01 3.188976E+00
ZONE T = "POP001_IND000"
001 014 -1.299213E+00 -2.480315E+00 -1.968504E-01 -1.179185E+01 -2.698459E+00 -3.976378E+00 -6.343420E-01 1.377953E+00
ZONE T = "POP001_IND000"
001 015 2.874016E+00 4.291339E+00 3.346457E+00 -6.927102E+00 -2.078460E-01 1.051181E+01 4.127310E+01 -4.763780E+00
ZONE T = "POP001_IND000"
001 016 -9.055118E-01 -3.897638E+00 -1.181102E-01 -9.076580E+00 -1.619250E+00 -4.921260E+00 -4.168530E-01 3.110236E+00
ZONE T = "POP001_IND000"
001 017 2.874016E+00 4.291339E+00 3.346457E+00 -6.927102E+00 -2.078460E-01 1.051181E+01 4.127310E+01 -4.763780E+00
ZONE T = "POP001_IND000"
001 018 -9.055118E-01 -3.897638E+00 -1.181102E-01 -9.076580E+00 -1.619250E+00 -4.921260E+00 -4.168530E-01 3.110236E+00
ZONE T = "POP001_IND000"
001 019 3.110236E+00 -1.141732E+00 2.322835E+00 -1.111409E+01 -4.451053E+00 4.291339E+00 -8.248518E+00 1.929134E+00
ZONE T = "POP001_IND000"
001 020 3.897638E+00 -1.181102E-01 2.755906E-01 -1.400254E+01 5.907692E+00 4.055118E+00 -1.268680E-01 3.740157E+00
ZONE T = "POP001_IND000"
001 021 -1.377953E+00 -2.716535E+00 1.929134E+00 -1.057353E+01 1.950922E+00 -2.165354E+00 7.221245E+00 -5.905510E-01
ZONE T = "POP001_IND000"
001 022 2.874016E+00 4.291339E+00 3.346457E+00 -6.927102E+00 -2.078460E-01 1.051181E+01 4.127310E+01 -4.763780E+00
ZONE T = "POP001_IND000"
001 023 -1.535433E+00 -2.401575E+00 2.244094E+00 -1.083684E+01 -1.930164E+00 -1.692913E+00 8.275003E+00 -1.377953E+00
ZONE T = "POP001_IND000"
001 024 -9.055118E-01 -3.897638E+00 -1.181102E-01 -9.076580E+00 -1.619250E+00 -4.921260E+00 -4.168530E-01 3.110236E+00
ZONE T = "POP001_IND000"
001 025 -1.377953E+00 -2.716535E+00 1.929134E+00 -1.057353E+01 1.950922E+00 -2.165354E+00 7.221245E+00 -5.905510E-01
ZONE T = "POP001_IND000"
001 026 2.480315E+00 -9.842520E-01 -2.244094E+00 -1.199006E+01 7.826922E+00 -7.480310E-01 5.478407E+00 5.708661E+00
ZONE T = "POP001_IND000"
001 027 -3.031496E+00 -2.244094E+00 -1.141732E+00 -1.074689E+01 3.218890E+00 -6.417323E+00 -7.767163E+00 3.543310E-01
ZONE T = "POP001_IND000"
001 028 -1.299213E+00 -2.480315E+00 -1.968504E-01 -1.179185E+01 -2.698459E+00 -3.976378E+00 -6.343420E-01 1.377953E+00
ZONE T = "POP001_IND000"
001 029 4.212598E+00 5.118110E-01 -3.188976E+00 -9.521250E+00 -2.963580E-01 1.535433E+00 -6.875606E+00 6.889764E+00
ZONE T = "POP001_IND000"
001 030 3.267717E+00 -1.614173E+00 1.535433E+00 -1.122889E+01 5.881345E+00 3.188976E+00 -8.098888E+00 3.346457E+00
ZONE T = "POP001_IND000"
001 031 4.212598E+00 5.118110E-01 -3.188976E+00 -9.521250E+00 -2.963580E-01 1.535433E+00 -6.875606E+00 6.889764E+00
ZONE T = "POP001_IND000"
001 032 4.212598E+00 5.118110E-01 -3.188976E+00 -9.521250E+00 -2.963580E-01 1.535433E+00 -6.875606E+00 6.889764E+00
ZONE T = "POP001_IND000"
001 033 -1.062992E+00 -1.456693E+00 2.480315E+00 -1.259758E+01 1.725591E+00 -3.937000E-02 3.840651E+00 -2.086614E+00
ZONE T = "POP001_IND000"
001 034 2.874016E+00 4.291339E+00 3.346457E+00 -6.927102E+00 -2.078460E-01 1.051181E+01 4.127310E+01 -4.763780E+00
ZONE T = "POP001_IND000"
001 035 6.692913E-01 -3.937008E-02 3.740157E+00 -1.347789E+01 9.575484E+00 4.370079E+00 -9.855300E-02 -3.031496E+00
ZONE T = "POP001_IND000"
001 036 -8.267717E-01 -1.929134E+00 -9.842520E-01 -1.305668E+01 -7.121898E+00 -3.740157E+00 -1.569836E+00 2.086614E+00
ZONE T = "POP001_IND000"
001 037 -4.133858E+00 -1.535433E+00 3.110236E+00 -9.136853E+00 -5.481230E-01 -2.559055E+00 1.974149E+01 -5.708661E+00
ZONE T = "POP001_IND000"
001 038 2.874016E+00 4.291339E+00 3.346457E+00 -6.927102E+00 -2.078460E-01 1.051181E+01 4.127310E+01 -4.763780E+00