VARIABLES = "population","individual","x1","x2","x3","objective1","objective2","p1","p2","p3"
ZONE T = "DOE_IND000"
-1 000 6.692913E-01 1.181102E-01 -5.000000E+00 -1.240683E+01 9.095351E+00 -4.212598E+00 -3.952510E-01 5.551181E+00
ZONE T = "DOE_IND000"
-1 001 4.133858E+00 8.267717E-01 -3.503937E+00 -9.170920E+00 1.847388E+01 1.456693E+00 -1.197560E+01 6.811024E+00
ZONE T = "DOE_IND000"
-1 002 4.842520E+00 1.456693E+00 4.133858E+00 -7.799139E+00 1.546231E+01 1.043307E+01 2.916050E+01 -7.480310E-01
ZONE T = "DOE_IND000"
-1 003 -1.299213E+00 -2.795276E+00 -1.968504E-01 -1.110793E+01 -1.067433E+00 -4.291339E+00 -7.148930E-01 1.692913E+00
ZONE T = "DOE_IND000"
-1 004 3.267717E+00 1.692913E+00 -4.291339E+00 -8.764753E+00 3.056570E+00 6.692910E-01 -2.373952E+01 5.866142E+00
ZONE T = "DOE_IND000"
-1 005 -2.795276E+00 2.716535E+00 1.141732E+00 -1.013296E+01 1.450278E+01 1.062992E+00 -8.669704E+00 -6.653543E+00
ZONE T = "DOE_IND000"
-1 006 -2.165354E+00 -3.543307E-01 2.874016E+00 -1.205161E+01 2.801469E+00 3.543310E-01 2.205093E+00 -4.685039E+00
ZONE T = "DOE_IND000"
-1 007 4.330709E-01 -1.850394E+00 -4.055118E+00 -1.093860E+01 8.611051E+00 -5.472441E+00 3.249575E+00 6.338583E+00
ZONE T = "DOE_IND000"
-1 008 3.425197E+00 2.755906E-01 -3.582677E+00 -9.903644E+00 4.426507E+00 1.181100E-01 -3.381875E+00 6.732283E+00
ZONE T = "DOE_IND000"
-1 009 -2.952756E+00 1.299213E+00 -3.031496E+00 -1.041604E+01 5.215202E+00 -4.685039E+00 1.162960E+01 -1.220472E+00
ZONE T = "DOE_IND000"
-1 010 2.874016E+00 2.874016E+00 2.559055E+00 -9.067511E+00 -7.407427E+00 8.307087E+00 2.113771E+01 -2.559055E+00
ZONE T = "DOE_IND000"
-1 011 3.582677E+00 -9.842520E-01 2.322835E+00 -1.079421E+01 6.020829E+00 4.921260E+00 -8.190912E+00 2.244094E+00
ZONE T = "DOE_IND000"
-1 012 2.559055E+00 4.133858E+00 5.905512E-01 -8.119887E+00 7.568128E+00 7.283465E+00 6.247306E+00 -2.165354E+00
ZONE T = "DOE_IND000"
-1 013 7.480315E-01 3.818898E+00 3.425197E+00 -8.176333E+00 7.705628E+00 7.992126E+00 9.784608E+00 -6.496063E+00
ZONE T = "DOE_IND000"
-1 014 -4.763780E+00 -1.377953E+00 4.448819E+00 -7.648790E+00 1.195220E+00 -1.692913E+00 2.920322E+01 -7.834646E+00
ZONE T = "DOE_IND000"
-1 015 2.007874E+00 5.000000E+00 -9.842520E-01 -7.012919E+00 4.056083E+00 6.023622E+00 -9.881270E+00 -2.007874E+00
ZONE T = "DOE_IND000"
-1 016 4.527559E+00 1.614173E+00 2.716535E+00 -9.139161E+00 2.365472E+00 8.858268E+00 1.985316E+01 1.968500E-01
ZONE T = "DOE_IND000"
-1 017 4.291339E+00 -5.118110E-01 3.661417E+00 -8.987239E+00 -1.019159E+00 7.440945E+00 -8.041770E+00 1.141732E+00
ZONE T = "DOE_IND000"
-1 018 -2.716535E+00 -4.763780E+00 -3.740157E+00 -6.317487E+00 -5.306068E+00 -1.122047E+01 -4.840129E+01 5.787402E+00
ZONE T = "DOE_IND000"
-1 019 3.346457E+00 -4.606299E+00 -4.842520E+00 -5.829463E+00 7.931067E+00 -6.102362E+00 7.464638E+01 1.279528E+01
ZONE T = "DOE_IND000"
-1 020 -2.007874E+00 2.480315E+00 1.929134E+00 -1.061647E+01 6.726599E+00 2.401575E+00 -9.607395E+00 -6.417323E+00
ZONE T = "DOE_IND000"
-1 021 -2.480315E+00 5.118110E-01 -2.165354E+00 -1.243414E+01 6.333143E+00 -4.133858E+00 2.748815E+00 -8.267720E-01
ZONE T = "DOE_IND000"
-1 022 -3.031496E+00 3.425197E+00 -3.346457E+00 -7.843591E+00 9.875051E+00 -2.952756E+00 3.474784E+01 -3.110236E+00
ZONE T = "DOE_IND000"
-1 023 4.763780E+00 4.763780E+00 -2.480315E+00 -6.014992E+00 1.648676E+01 7.047244E+00 -5.628726E+01 2.480315E+00
ZONE T = "DOE_IND000"
-1 024 8.267717E-01 2.165354E+00 -3.543307E-01 -1.273827E+01 2.278461E+00 2.637795E+00 -6.343420E-01 -9.842520E-01
ZONE T = "DOE_IND000"
-1 025 4.212598E+00 3.582677E+00 6.692913E-01 -8.133001E+00 9.684554E+00 8.464567E+00 1.010120E+01 -3.937000E-02
ZONE T = "DOE_IND000"
-1 026 2.086614E+00 4.527559E+00 -1.929134E+00 -7.426730E+00 -3.547100E-01 4.685039E+00 -1.822505E+01 -5.118110E-01
ZONE T = "DOE_IND000"
-1 027 -1.220472E+00 3.031496E+00 3.110236E+00 -9.396949E+00 -1.606560E+00 4.921260E+00 -1.150743E+01 -7.362205E+00
ZONE T = "DOE_IND000"
-1 028 -4.212598E+00 3.267717E+00 -4.685039E+00 -6.633349E+00 6.810297E+00 -5.629921E+00 6.449227E+01 -2.795276E+00
ZONE T = "DOE_IND000"
-1 029 -8.267717E-01 -4.448819E+00 4.685039E+00 -6.792210E+00 8.206517E+00 -5.905510E-01 1.723231E+01 -1.062992E+00
ZONE T = "DOE_IND000"
-1 030 -1.535433E+00 -3.031496E+00 -4.763780E+00 -8.300590E+00 2.800825E+00 -9.330709E+00 -2.217377E+01 6.259843E+00
ZONE T = "DOE_IND000"
-1 031 1.771654E+00 1.771654E+00 -1.692913E+00 -1.218435E+01 3.023698E+00 1.850394E+00 -5.313643E+00 1.692913E+00
ZONE T = "DOE_IND000"
-1 032 -3.110236E+00 -3.188976E+00 -3.976378E+00 -7.710801E+00 8.427930E+00 -1.027559E+01 -3.943959E+01 4.055118E+00
ZONE T = "DOE_IND000"
-1 033 4.448819E+00 -1.535433E+00 4.370079E+00 -7.861127E+00 1.559082E+01 7.283465E+00 -2.985141E+01 1.614173E+00
ZONE T = "DOE_IND000"
-1 034 -3.897638E+00 9.842520E-01 2.086614E+00 -1.077924E+01 9.196836E+00 -8.267720E-01 -8.004790E+00 -6.968504E+00
ZONE T = "DOE_IND000"
-1 035 2.952756E+00 -2.401575E+00 4.330709E-01 -1.080912E+01 3.385151E+00 9.842520E-01 -3.071020E+00 4.921260E+00
ZONE T = "DOE_IND000"
-1 036 1.692913E+00 2.322835E+00 -5.118110E-01 -1.184229E+01 -1.715234E+00 3.503937E+00 -2.012624E+00 -1.181100E-01
ZONE T = "DOE_IND000"
-1 037 -4.448819E+00 1.850394E+00 -3.267717E+00 -8.533651E+00 8.990462E+00 -5.866142E+00 2.690006E+01 -3.031496E+00
ZONE T = "DOE_IND000"
-1 038 -6.692913E-01 2.952756E+00 -6.692913E-01 -1.091568E+01 3.746067E+00 1.614173E+00 1.322690E+00 -2.952756E+00
ZONE T = "DOE_IND000"
-1 039 3.031496E+00 -4.370079E+00 -5.905512E-01 -7.591398E+00 2.437209E+00 -1.929134E+00 7.823549E+00 7.992126E+00
ZONE T = "DOE_IND000"
-1 040 -1.771654E+00 -1.929134E+00 -1.181102E-01 -1.271637E+01 2.845698E+00 -3.818898E+00 -4.036720E-01 2.755910E-01
ZONE T = "DOE_IND000"
-1 041 -7.480315E-01 -8.267717E-01 3.031496E+00 -1.333545E+01 1.385966E+00 1.456693E+00 1.874832E+00 -2.952756E+00
ZONE T = "DOE_IND000"
-1 042 4.606299E+00 -2.322835E+00 -3.897638E+00 -7.599244E+00 4.487337E+00 -1.614173E+00 4.170344E+01 1.082677E+01
ZONE T = "DOE_IND000"
-1 043 -4.842520E+00 -1.220472E+00 3.188976E+00 -8.734700E+00 4.413648E+00 -2.874016E+00 1.884737E+01 -6.811024E+00
ZONE T = "DOE_IND000"
-1 044 2.795276E+00 -2.874016E+00 9.055118E-01 -9.958595E+00 1.457621E+01 8.267720E-01 -7.274580E+00 4.763780E+00
ZONE T = "DOE_IND000"
-1 045 -3.818898E+00 -2.755906E-01 2.401575E+00 -1.081619E+01 1.375505E+01 -1.692913E+00 2.527542E+00 -5.944882E+00
ZONE T = "DOE_IND000"
-1 046 2.716535E+00 2.559055E+00 -3.661417E+00 -8.833197E+00 1.211002E+01 1.614173E+00 -2.545331E+01 3.818898E+00
ZONE T = "DOE_IND000"
-1 047 5.000000E+00 -5.000000E+00 2.637795E+00 -5.659473E+00 7.041470E+00 2.637795E+00 -6.594488E+01 7.362205E+00
ZONE T = "DOE_IND000"
-1 048 1.220472E+00 3.110236E+00 9.842520E-01 -1.033385E+01 8.709856E+00 5.314961E+00 3.736179E+00 -2.874016E+00
ZONE T = "DOE_IND000"
-1 049 4.055118E+00 2.637795E+00 3.543307E-01 -9.672819E+00 2.620820E-01 7.047244E+00 3.790124E+00 1.062992E+00
ZONE T = "DOE_IND000"
-1 050 9.842520E-01 -3.346457E+00 -8.267717E-01 -9.996285E+00 6.979338E+00 -3.188976E+00 2.723185E+00 5.157480E+00
ZONE T = "DOE_IND000"
-1 051 3.188976E+00 -1.141732E+00 3.582677E+00 -9.793192E+00 1.021902E+01 5.629921E+00 -1.304438E+01 7.480310E-01
ZONE T = "DOE_IND000"
-1 052 -4.133858E+00 4.921260E+00 1.456693E+00 -6.348058E+00 2.337385E+00 2.244094E+00 -2.963466E+01 -1.051181E+01
ZONE T = "DOE_IND000"
-1 053 -2.401575E+00 -4.212598E+00 -1.299213E+00 -7.932402E+00 5.402720E-01 -7.913386E+00 -1.314396E+01 3.110236E+00
ZONE T = "DOE_IND000"
-1 054 1.850394E+00 -3.976378E+00 1.299213E+00 -8.491194E+00 1.000660E+01 -8.267720E-01 -9.559431E+00 4.527559E+00
ZONE T = "DOE_IND000"
-1 055 1.062992E+00 3.661417E+00 4.212598E+00 -7.939855E+00 4.080111E+00 8.937008E+00 1.639568E+01 -6.811024E+00
ZONE T = "DOE_IND000"
-1 056 3.818898E+00 4.291339E+00 1.771654E+00 -7.121166E+00 -1.710185E+00 9.881890E+00 2.903418E+01 -2.244094E+00
ZONE T = "DOE_IND000"
-1 057 -4.055118E+00 2.007874E+00 1.220472E+00 -1.029582E+01 1.894268E+01 -8.267720E-01 -9.937290E+00 -7.283465E+00
ZONE T = "DOE_IND000"
-1 058 1.929134E+00 -2.165354E+00 -2.874016E+00 -1.046797E+01 1.802733E+01 -3.110236E+00 1.200551E+01 6.968504E+00
ZONE T = "DOE_IND000"
-1 059 -3.346457E+00 2.795276E+00 -4.448819E+00 -7.677392E+00 9.626234E+00 -5.000000E+00 4.161545E+01 -1.692913E+00
ZONE T = "DOE_IND000"
-1 060 3.937008E-02 -3.582677E+00 -2.244094E+00 -9.177653E+00 4.989277E+00 -5.787402E+00 3.165300E-01 5.866142E+00
ZONE T = "DOE_IND000"
-1 061 5.905512E-01 -3.897638E+00 -2.322835E+00 -8.581079E+00 4.472862E+00 -5.629921E+00 5.346595E+00 6.811024E+00
ZONE T = "DOE_IND000"
-1 062 -2.559055E+00 5.905512E-01 -1.220472E+00 -1.353889E+01 4.462845E+00 -3.188976E+00 1.844443E+00 -1.929134E+00
ZONE T = "DOE_IND000"
-1 063 -5.000000E+00 -3.425197E+00 -4.133858E+00 -6.393023E+00 4.447420E+00 -1.255906E+01 -7.079639E+01 2.559055E+00
ZONE T = "DOE_IND000"
-1 064 -1.141732E+00 3.188976E+00 2.952756E+00 -9.271965E+00 8.152967E+00 5.000000E+00 -1.075086E+01 -7.283465E+00
ZONE T = "DOE_IND000"
-1 065 -2.755906E-01 -2.007874E+00 -2.086614E+00 -1.227122E+01 -2.722156E+00 -4.370079E+00 -1.154630E+00 3.818898E+00
ZONE T = "DOE_IND000"
-1 066 -3.543307E-01 -4.055118E+00 3.897638E+00 -7.677134E+00 1.180688E+01 -5.118110E-01 5.600332E+00 -1.968500E-01
ZONE T = "DOE_IND000"
-1 067 -4.921260E+00 -1.692913E+00 5.118110E-01 -1.055224E+01 1.226847E+01 -6.102362E+00 4.264034E+00 -3.740157E+00
ZONE T = "DOE_IND000"
-1 068 -4.606299E+00 3.937008E-02 -3.937008E-02 -1.386930E+01 5.244759E+00 -4.606299E+00 7.140000E-03 -4.606299E+00
ZONE T = "DOE_IND000"
-1 069 -1.692913E+00 -1.062992E+00 4.055118E+00 -1.102848E+01 2.673062E+00 1.299213E+00 7.297402E+00 -4.685039E+00
ZONE T = "DOE_IND000"
-1 070 -9.055118E-01 -6.692913E-01 1.614173E+00 -1.503405E+01 -6.113641E+00 3.937000E-02 9.782720E-01 -1.850394E+00
ZONE T = "DOE_IND000"
-1 071 -1.968504E-01 -2.637795E+00 -3.818898E+00 -9.844170E+00 1.147650E+01 -6.653543E+00 -1.982967E+00 6.259843E+00
ZONE T = "DOE_IND000"
-1 072 -2.322835E+00 1.968504E-01 2.480315E+00 -1.235336E+01 6.679273E+00 3.543310E-01 -1.134126E+00 -5.000000E+00
ZONE T = "DOE_IND000"
-1 073 1.141732E+00 1.220472E+00 -1.850394E+00 -1.357770E+01 1.348952E+01 5.118110E-01 -2.578436E+00 1.771654E+00
ZONE T = "DOE_IND000"
-1 074 -4.330709E-01 3.740157E+00 3.346457E+00 -8.374425E+00 8.927901E+00 6.653543E+00 -5.420434E+00 -7.519685E+00
ZONE T = "DOE_IND000"
-1 075 -5.905512E-01 -4.330709E-01 3.503937E+00 -1.357311E+01 -1.636271E+00 2.480315E+00 8.961340E-01 -3.661417E+00
ZONE T = "DOE_IND000"
-1 076 2.165354E+00 -9.055118E-01 2.007874E+00 -1.269069E+01 2.673593E+00 3.267717E+00 -3.936947E+00 1.062992E+00
ZONE T = "DOE_IND000"
-1 077 -3.503937E+00 -4.685039E+00 5.000000E+00 -5.643487E+00 7.097491E+00 -3.188976E+00 8.208041E+01 -3.818898E+00
ZONE T = "DOE_IND000"
-1 078 -2.086614E+00 1.377953E+00 -4.370079E+00 -1.006407E+01 2.293501E+00 -5.078740E+00 1.256509E+01 9.055120E-01
ZONE T = "DOE_IND000"
-1 079 -5.118110E-01 -3.267717E+00 2.165354E+00 -9.726431E+00 2.667928E+00 -1.614173E+00 3.621454E+00 5.905510E-01
ZONE T = "DOE_IND000"
-1 080 4.921260E+00 1.141732E+00 -7.480315E-01 -1.125175E+01 7.471973E+00 5.314961E+00 -4.203010E+00 4.527559E+00
ZONE T = "DOE_IND000"
-1 081 -1.850394E+00 -1.299213E+00 -4.212598E+00 -1.050320E+01 4.695508E+00 -7.362205E+00 -1.012732E+01 3.661417E+00
ZONE T = "DOE_IND000"
-1 082 2.244094E+00 4.606299E+00 1.062992E+00 -7.473743E+00 4.546245E+00 7.913386E+00 1.098812E+01 -3.425197E+00
ZONE T = "DOE_IND000"
-1 083 -1.929134E+00 -1.968504E-01 1.181102E-01 -1.633653E+01 -1.789591E+00 -2.007874E+00 4.485200E-02 -1.850394E+00
ZONE T = "DOE_IND000"
-1 084 -4.685039E+00 7.480315E-01 -1.614173E+00 -1.087778E+01 8.387891E+00 -5.551181E+00 5.656962E+00 -3.818898E+00
ZONE T = "DOE_IND000"
-1 085 -3.267717E+00 -3.110236E+00 -2.755906E-01 -9.411919E+00 1.180791E+01 -6.653543E+00 -2.800929E+00 1.181100E-01
ZONE T = "DOE_IND000"
-1 086 -2.874016E+00 4.212598E+00 -2.716535E+00 -7.275816E+00 4.985303E+00 -1.377953E+00 3.288930E+01 -4.370079E+00
ZONE T = "DOE_IND000"
-1 087 3.740157E+00 3.543307E-01 1.377953E+00 -1.224063E+01 1.175635E+01 5.472441E+00 1.826136E+00 2.007874E+00
ZONE T = "DOE_IND000"
-1 088 -3.937008E-02 -3.818898E+00 -3.188976E+00 -8.355850E+00 5.047905E+00 -7.047244E+00 -4.794640E-01 6.968504E+00
ZONE T = "DOE_IND000"
-1 089 -1.377953E+00 2.244094E+00 -1.456693E+00 -1.176183E+01 -2.975333E+00 -5.905510E-01 4.504468E+00 -2.165354E+00
ZONE T = "DOE_IND000"
-1 090 2.637795E+00 -4.842520E+00 4.763780E+00 -5.889428E+00 9.402179E+00 2.559055E+00 -6.085050E+01 2.716535E+00
ZONE T = "DOE_IND000"
-1 091 -3.425197E+00 4.685039E+00 7.480315E-01 -7.004376E+00 9.607426E+00 2.007874E+00 -1.200380E+01 -8.858268E+00
ZONE T = "DOE_IND000"
-1 092 -4.291339E+00 4.448819E+00 2.244094E+00 -6.596224E+00 6.422582E+00 2.401575E+00 -4.284288E+01 -1.098425E+01
ZONE T = "DOE_IND000"
-1 093 4.370079E+00 3.897638E+00 4.527559E+00 -6.127695E+00 1.181303E+01 1.279528E+01 7.711784E+01 -4.055118E+00
ZONE T = "DOE_IND000"
-1 094 3.543307E-01 9.055118E-01 -1.771654E+00 -1.494977E+01 9.848727E+00 -5.118110E-01 -5.684360E-01 1.220472E+00
ZONE T = "DOE_IND000"
-1 095 -3.188976E+00 1.062992E+00 4.842520E+00 -8.815316E+00 9.745688E+00 2.716535E+00 -1.641545E+01 -9.094488E+00
ZONE T = "DOE_IND000"
-1 096 2.322835E+00 2.401575E+00 -3.425197E+00 -9.457772E+00 8.234561E+00 1.299213E+00 -1.910733E+01 3.346457E+00
ZONE T = "DOE_IND000"
-1 097 -4.370079E+00 -1.456693E+00 1.535433E+00 -1.052888E+01 -1.434285E+00 -4.291339E+00 9.774356E+00 -4.448819E+00
ZONE T = "DOE_IND000"
-1 098 -3.661417E+00 4.055118E+00 3.267717E+00 -6.882076E+00 8.193069E+00 3.661417E+00 -4.851736E+01 -1.098425E+01
ZONE T = "DOE_IND000"
-1 099 9.055118E-01 1.929134E+00 -4.921260E+00 -1.000412E+01 1.444034E+01 -2.086614E+00 -8.596720E+00 3.897638E+00
ZONE T = "DOE_IND000"
-1 100 -3.740157E+00 -7.480315E-01 1.850394E+00 -1.137211E+01 -8.940530E-01 -2.637795E+00 5.176949E+00 -4.842520E+00
ZONE T = "DOE_IND000"
-1 101 2.401575E+00 -4.527559E+00 -1.141732E+00 -7.518252E+00 1.124487E+01 -3.267717E+00 1.241437E+01 8.070866E+00
ZONE T = "DOE_IND000"
-1 102 -1.062992E+00 -4.921260E+00 -2.952756E+00 -6.826574E+00 4.343270E-01 -8.937008E+00 -1.544664E+01 6.811024E+00
ZONE T = "DOE_IND000"
-1 103 -2.244094E+00 -3.503937E+00 3.740157E+00 -7.938864E+00 2.080583E+01 -2.007874E+00 2.940948E+01 -2.480315E+00
ZONE T = "DOE_IND000"
-1 104 1.377953E+00 -3.661417E+00 -2.559055E+00 -8.665516E+00 1.770728E+01 -4.842520E+00 1.291110E+01 7.598425E+00
ZONE T = "DOE_IND000"
-1 105 1.535433E+00 -1.614173E+00 8.267717E-01 -1.336248E+01 8.483333E+00 7.480310E-01 -2.049116E+00 2.322835E+00
ZONE T = "DOE_IND000"
-1 106 3.503937E+00 2.086614E+00 -2.007874E+00 -1.002730E+01 -1.017877E+00 3.582677E+00 -1.468030E+01 3.425197E+00
ZONE T = "DOE_IND000"
-1 107 -4.527559E+00 4.842520E+00 4.921260E+00 -5.169341E+00 1.667090E+01 5.236220E+00 -1.078976E+02 -1.429134E+01
ZONE T = "DOE_IND000"
-1 108 3.661417E+00 -4.291339E+00 2.795276E+00 -6.826633E+00 6.773385E+00 2.165354E+00 -4.392044E+01 5.157480E+00
ZONE T = "DOE_IND000"
-1 109 -1.614173E+00 -2.480315E+00 -1.535433E+00 -1.111282E+01 9.446530E+00 -5.629921E+00 -6.147349E+00 2.401575E+00
ZONE T = "DOE_IND000"
-1 110 4.685039E+00 -3.937008E-02 3.976378E+00 -8.432246E+00 1.045290E+01 8.622047E+00 -7.334440E-01 7.480310E-01
ZONE T = "DOE_IND000"
-1 111 1.456693E+00 -1.771654E+00 1.692913E+00 -1.244660E+01 3.062138E+00 1.377953E+00 -4.368995E+00 1.535433E+00
ZONE T = "DOE_IND000"
-1 112 -3.582677E+00 -4.133858E+00 -4.527559E+00 -6.282661E+00 4.656766E+00 -1.224409E+01 -6.705442E+01 5.078740E+00
ZONE T = "DOE_IND000"
-1 113 -9.842520E-01 -2.952756E+00 -4.330709E-01 -1.087136E+01 -3.476794E+00 -4.370079E+00 -1.258615E+00 2.401575E+00
ZONE T = "DOE_IND000"
-1 114 -1.456693E+00 -2.244094E+00 -3.110236E+00 -1.049995E+01 1.510902E+01 -6.811024E+00 -1.016723E+01 3.897638E+00
ZONE T = "DOE_IND000"
-1 115 -2.637795E+00 3.976378E+00 -2.401575E+00 -7.799847E+00 4.992136E+00 -1.062992E+00 2.518981E+01 -4.212598E+00
ZONE T = "DOE_IND000"
-1 116 2.480315E+00 -2.086614E+00 4.291339E+00 -9.080194E+00 5.238063E+00 4.685039E+00 -2.220965E+01 2.755910E-01
ZONE T = "DOE_IND000"
-1 117 5.118110E-01 4.330709E-01 3.818898E+00 -1.338139E+01 1.322895E+00 4.763780E+00 8.464600E-01 -3.740157E+00
ZONE T = "DOE_IND000"
-1 118 3.110236E+00 -1.181102E-01 -9.055118E-01 -1.369675E+01 -4.659675E+00 2.086614E+00 3.326400E-01 4.133858E+00
ZONE T = "DOE_IND000"
-1 119 1.299213E+00 3.346457E+00 -2.795276E+00 -9.058336E+00 8.347084E+00 1.850394E+00 -1.215318E+01 7.480310E-01
ZONE T = "DOE_IND000"
-1 120 3.976378E+00 1.535433E+00 4.606299E+00 -8.050143E+00 4.023042E+00 1.011811E+01 2.812359E+01 -2.165354E+00
ZONE T = "DOE_IND000"
-1 121 1.968504E-01 6.692913E-01 3.937008E-02 -1.744280E+01 2.588043E+00 9.055120E-01 5.187000E-03 -5.118110E-01
ZONE T = "DOE_IND000"
-1 122 3.897638E+00 4.370079E+00 1.968504E-01 -7.269165E+00 1.373253E+01 8.464567E+00 3.352950E+00 -6.692910E-01
ZONE T = "DOE_IND000"
-1 123 1.614173E+00 -2.716535E+00 -1.062992E+00 -1.089522E+01 -8.948336E+00 -2.165354E+00 4.661177E+00 5.393701E+00
ZONE T = "DOE_IND000"
-1 124 2.755906E-01 3.503937E+00 -2.637795E+00 -9.110815E+00 3.636709E+00 1.141732E+00 -2.547192E+00 -5.905510E-01
ZONE T = "DOE_IND000"
-1 125 -3.976378E+00 -5.905512E-01 2.755906E-01 -1.325334E+01 2.907219E+00 -4.291339E+00 6.471570E-01 -3.661417E+00
ZONE T = "DOE_IND000"
-1 126 1.181102E-01 -2.559055E+00 -4.606299E+00 -9.476640E+00 1.174313E+01 -7.047244E+00 1.392257E+00 7.283465E+00
ZONE T = "DOE_IND000"
-1 127 -1.181102E-01 -3.740157E+00 -1.377953E+00 -9.237172E+00 -2.594700E+00 -5.236220E+00 -6.087120E-01 5.000000E+00
ZONE T = "POP000_IND000"
000 000 -1.172201E+00 -1.133652E+00 -8.755082E-01 -1.472609E+01 -9.932646E+00 -3.181361E+00 -1.163435E+00 8.369590E-01
ZONE T = "POP000_IND000"
000 001 -1.185217E+00 -1.129588E+00 -8.594223E-01 -1.473617E+01 -9.767130E+00 -3.174228E+00 -1.150601E+00 8.037930E-01
ZONE T = "POP000_IND000"
000 002 -1.417403E+00 -9.351518E-01 -4.309489E-01 -1.525927E+01 -2.717165E+00 -2.783504E+00 -5.712170E-01 -5.130300E-02
ZONE T = "POP000_IND000"
000 003 -1.375126E+00 -1.043206E+00 -6.406114E-01 -1.490902E+01 -5.383844E+00 -3.058944E+00 -9.189830E-01 3.086910E-01
ZONE T = "POP000_IND000"
000 004 -1.162898E+00 -1.096563E+00 -8.926095E-01 -1.480067E+01 -9.987472E+00 -3.152070E+00 -1.138248E+00 8.262740E-01
ZONE T = "POP000_IND000"
000 005 -1.543884E+00 -9.658162E-01 -3.151559E-01 -1.510865E+01 1.272776E+00 -2.824856E+00 -4.699320E-01 -2.629120E-01
ZONE T = "POP000_IND000"
000 006 -1.428892E+00 -1.037860E+00 -5.318997E-01 -1.494392E+01 -3.392996E+00 -2.998652E+00 -7.888020E-01 1.408680E-01
ZONE T = "POP000_IND000"
000 007 -1.335501E+00 -1.065841E+00 -6.605386E-01 -1.488726E+01 -6.513544E+00 -3.061880E+00 -9.402310E-01 3.908780E-01
ZONE T = "POP000_IND000"
000 008 -1.363771E+00 -1.047327E+00 -6.670633E-01 -1.489088E+01 -5.825526E+00 -3.078162E+00 -9.527760E-01 3.506200E-01
ZONE T = "POP000_IND000"
000 009 -1.177326E+00 -1.119182E+00 -9.090679E-01 -1.472097E+01 -1.017194E+01 -3.205575E+00 -1.197825E+00 8.509240E-01
ZONE T = "POP000_IND000"
000 010 -1.136974E+00 -1.131929E+00 -9.598122E-01 -1.468696E+01 -1.062526E+01 -3.228715E+00 -1.235253E+00 9.547660E-01
ZONE T = "POP000_IND000"
000 011 -1.365402E+00 -1.046326E+00 -6.650968E-01 -1.489287E+01 -5.769922E+00 -3.076825E+00 -9.501940E-01 3.460200E-01
ZONE T = "POP000_IND000"
000 012 -1.137792E+00 -1.131516E+00 -9.577833E-01 -1.468896E+01 -1.060940E+01 -3.227091E+00 -1.233078E+00 9.515070E-01
ZONE T = "POP000_IND000"
000 013 -1.180688E+00 -9.759060E-01 -7.470086E-01 -1.518202E+01 -8.102070E+00 -2.903603E+00 -8.607340E-01 5.422260E-01
ZONE T = "POP000_IND000"
000 014 -1.136653E+00 -1.133285E+00 -9.619771E-01 -1.468229E+01 -1.064408E+01 -3.231914E+00 -1.239172E+00 9.586090E-01
ZONE T = "POP000_IND000"
000 015 -1.423499E+00 -1.030584E+00 -5.629245E-01 -1.494327E+01 -3.619905E+00 -3.017007E+00 -8.258300E-01 1.700100E-01
ZONE T = "POP000_IND000"
000 016 -1.165564E+00 -1.006982E+00 -7.965138E-01 -1.508405E+01 -8.713934E+00 -2.969060E+00 -9.348700E-01 6.379320E-01
ZONE T = "POP000_IND000"
000 017 -1.323017E+00 -9.235892E-01 -5.277254E-01 -1.532553E+01 -5.162802E+00 -2.774331E+00 -6.448400E-01 1.282980E-01
ZONE T = "POP000_IND000"
000 018 -1.323812E+00 -9.373546E-01 -5.421634E-01 -1.528226E+01 -5.308810E+00 -2.803330E+00 -6.727600E-01 1.557060E-01
ZONE T = "POP000_IND000"
000 019 -1.406005E+00 -8.847253E-01 -4.005114E-01 -1.540782E+01 -2.583712E+00 -2.691242E+00 -4.982080E-01 -1.207680E-01
ZONE T = "POP000_IND000"
000 020 -1.085676E+00 -7.235868E-01 -5.963936E-01 -1.599323E+01 -5.190330E+00 -2.405656E+00 -4.685150E-01 2.343050E-01
ZONE T = "POP000_IND000"
000 021 -1.549019E+00 -9.426677E-01 -2.850716E-01 -1.517041E+01 1.628279E+00 -2.776758E+00 -4.162640E-01 -3.212790E-01
ZONE T = "POP000_IND000"
000 022 -1.569963E+00 -9.551832E-01 -2.713872E-01 -1.512315E+01 2.151405E+00 -2.796533E+00 -4.069730E-01 -3.433920E-01
ZONE T = "POP000_IND000"
000 023 -1.321908E+00 -9.201547E-01 -5.258314E-01 -1.533604E+01 -5.149002E+00 -2.767894E+00 -6.396000E-01 1.240790E-01
ZONE T = "POP000_IND000"
000 024 -1.278440E+00 -1.087012E+00 -7.492122E-01 -1.482839E+01 -8.100048E+00 -3.114664E+00 -1.041165E+00 5.577830E-01
ZONE T = "POP000_IND000"
000 025 -1.180505E+00 -1.127493E+00 -8.767053E-01 -1.472982E+01 -9.916181E+00 -3.184703E+00 -1.166905E+00 8.236930E-01
ZONE T = "POP000_IND000"
000 026 -1.425042E+00 -1.033261E+00 -5.207280E-01 -1.496662E+01 -3.445213E+00 -2.979032E+00 -7.667410E-01 1.289470E-01
ZONE T = "POP000_IND000"
000 027 -1.188674E+00 -1.126046E+00 -8.604586E-01 -1.473937E+01 -9.759043E+00 -3.175178E+00 -1.151725E+00 7.978310E-01
ZONE T = "POP000_IND000"
000 028 -1.180279E+00 -1.027191E+00 -8.056312E-01 -1.501512E+01 -8.897491E+00 -3.013101E+00 -9.767250E-01 6.525430E-01
ZONE T = "POP000_IND000"
000 029 -1.404052E+00 -8.872196E-01 -4.033504E-01 -1.540261E+01 -2.663778E+00 -2.694622E+00 -5.024550E-01 -1.134820E-01
ZONE T = "POP000_IND000"
000 030 -1.231575E+00 -7.285734E-01 -4.361637E-01 -1.594929E+01 -4.608590E+00 -2.396312E+00 -3.913670E-01 -6.683800E-02
ZONE T = "POP000_IND000"
000 031 -1.037274E+00 -8.742377E-01 -8.006540E-01 -1.551297E+01 -7.279868E+00 -2.712166E+00 -7.260520E-01 6.376180E-01
ZONE T = "POP001_IND000"
001 000 2.435092E-01 -4.998322E+00 -2.731788E+00 -6.876335E+00 4.805388E+00 -7.486601E+00 3.324961E+00 7.973620E+00
ZONE T = "POP001_IND000"
001 001 1.940706E-01 -4.997998E+00 -2.496609E+00 -6.948878E+00 8.912544E+00 -7.300536E+00 2.421622E+00 7.688677E+00
ZONE T = "POP001_IND000"
001 002 -3.338280E-01 -4.773142E+00 -2.567583E+00 -7.223049E+00 5.863413E+00 -7.674552E+00 -4.091208E+00 7.006896E+00
ZONE T = "POP001_IND000"
001 003 1.228273E-01 -4.998936E+00 -2.481498E+00 -6.953709E+00 7.200587E+00 -7.357606E+00 1.523654E+00 7.603261E+00
ZONE T = "POP001_IND000"
001 004 2.032878E-01 -4.998084E+00 -2.546785E+00 -6.933741E+00 1.329329E+01 -7.341581E+00 2.587660E+00 7.748157E+00
ZONE T = "POP001_IND000"
001 005 8.903587E-02 -4.998508E+00 -2.687134E+00 -6.893521E+00 6.848729E+00 -7.596606E+00 1.195900E+00 7.774678E+00
ZONE T = "POP001_IND000"
001 006 3.110981E-01 -4.997168E+00 -2.916360E+00 -6.817467E+00 1.197479E+01 -7.602430E+00 4.533800E+00 8.224626E+00
ZONE T = "POP001_IND000"
001 007 2.275280E-01 -4.998570E+00 -2.617513E+00 -6.911262E+00 1.359691E+01 -7.388556E+00 2.976937E+00 7.843612E+00
ZONE T = "POP001_IND000"
001 008 2.116285E-01 -4.998597E+00 -2.616470E+00 -6.912054E+00 1.362464E+01 -7.403439E+00 2.767822E+00 7.826696E+00
ZONE T = "POP001_IND000"
001 009 2.404448E-01 -4.996030E+00 -2.663638E+00 -6.900218E+00 1.005570E+01 -7.419223E+00 3.199746E+00 7.900113E+00
ZONE T = "POP001_IND000"
001 010 -5.483586E-01 -4.168847E+00 -1.726098E+00 -8.368900E+00 9.991355E+00 -6.443304E+00 -3.945900E+00 5.346587E+00
ZONE T = "POP001_IND000"
001 011 2.959674E-01 -4.997775E+00 -2.858184E+00 -6.835715E+00 1.502512E+01 -7.559991E+00 4.227764E+00 8.151926E+00
ZONE T = "POP001_IND000"
001 012 2.149355E-01 -4.998583E+00 -2.545728E+00 -6.933040E+00 1.310995E+01 -7.329376E+00 2.735061E+00 7.759247E+00
ZONE T = "POP001_IND000"
001 013 -2.399858E-01 -4.871166E+00 -2.486017E+00 -7.119859E+00 1.142157E+00 -7.597169E+00 -2.906180E+00 7.117197E+00
ZONE T = "POP001_IND000"
001 014 1.304187E-01 -4.998624E+00 -2.383801E+00 -6.982105E+00 5.151786E+00 -7.252007E+00 1.554034E+00 7.512844E+00
ZONE T = "POP001_IND000"
001 015 3.083012E-01 -4.998479E+00 -2.924505E+00 -6.813340E+00 1.062757E+01 -7.614682E+00 4.506770E+00 8.231284E+00
ZONE T = "POP001_IND000"
001 016 2.391867E-01 -4.998692E+00 -2.649342E+00 -6.901119E+00 1.089657E+01 -7.408848E+00 3.167608E+00 7.887221E+00
ZONE T = "POP001_IND000"
001 017 3.116792E-01 -4.998927E+00 -2.919218E+00 -6.814290E+00 1.117539E+01 -7.606466E+00 4.548322E+00 8.229825E+00
ZONE T = "POP001_IND000"
001 018 -8.892021E-01 -4.999033E+00 -2.165246E+00 -6.985851E+00 9.835003E+00 -8.053481E+00 -9.624847E+00 6.275077E+00
ZONE T = "POP001_IND000"
001 019 2.727779E-01 -4.998217E+00 -2.787811E+00 -6.858075E+00 8.332132E+00 -7.513249E+00 3.800910E+00 8.058805E+00
ZONE T = "POP001_IND000"
001 020 2.521871E-01 -4.998560E+00 -2.709773E+00 -6.882455E+00 5.409982E+00 -7.456146E+00 3.415865E+00 7.960520E+00
ZONE T = "POP001_IND000"
001 021 2.379250E-01 -4.994936E+00 -2.632139E+00 -6.911258E+00 1.337358E+01 -7.389150E+00 3.128088E+00 7.865001E+00
ZONE T = "POP001_IND000"
001 022 2.215643E-01 -4.997292E+00 -2.571612E+00 -6.926849E+00 1.473202E+01 -7.347339E+00 2.847344E+00 7.790468E+00
ZONE T = "POP001_IND000"
001 023 2.378032E-01 -4.995886E+00 -2.640797E+00 -6.907410E+00 1.240905E+01 -7.398880E+00 3.137366E+00 7.874486E+00
ZONE T = "POP001_IND000"
001 024 8.643013E-02 -4.998461E+00 -2.683948E+00 -6.894586E+00 7.154691E+00 -7.595979E+00 1.159513E+00 7.768840E+00
ZONE T = "POP001_IND000"
001 025 -5.428879E-01 -4.999904E+00 -1.742295E+00 -7.125488E+00 1.230026E+01 -7.285087E+00 -4.729263E+00 6.199311E+00
ZONE T = "POP001_IND000"
001 026 1.291510E-01 -4.998948E+00 -2.378393E+00 -6.983235E+00 5.331739E+00 -7.248189E+00 1.535536E+00 7.506491E+00
ZONE T = "POP001_IND000"
001 027 -3.253827E-01 -4.205905E+00 -1.813326E+00 -8.302227E+00 1.077668E+01 -6.344614E+00 -2.481589E+00 5.693849E+00
ZONE T = "POP001_IND000"
001 028 -5.351445E-01 -4.967856E+00 -2.437172E+00 -6.987796E+00 1.184985E+00 -7.940173E+00 -6.479273E+00 6.869884E+00
ZONE T = "POP001_IND000"
001 029 1.976333E-01 -4.997963E+00 -2.554211E+00 -6.931870E+00 1.377916E+01 -7.354541E+00 2.522957E+00 7.749807E+00
ZONE T = "POP001_IND000"
001 030 -7.460414E-01 -4.997864E+00 -2.277471E+00 -6.973662E+00 1.141787E+01 -8.021377E+00 -8.491809E+00 6.529294E+00
ZONE T = "POP001_IND000"
001 031 3.137700E-01 -4.998383E+00 -3.028434E+00 -6.779991E+00 7.739203E+00 -7.713047E+00 4.749623E+00 8.340587E+00
ZONE T = "POP002_IND000"
002 000 -1.265011E+00 -1.083825E+00 -7.951333E-01 -1.480917E+01 -8.577805E+00 -3.143970E+00 -1.090168E+00 6.139480E-01
ZONE T = "POP002_IND000"
002 001 -1.279942E+00 -1.095055E+00 -7.927841E-01 -1.477075E+01 -8.424287E+00 -3.167781E+00 -1.111172E+00 6.078970E-01
ZONE T = "POP002_IND000"
002 002 -1.232692E+00 -1.088826E+00 -8.220558E-01 -1.480884E+01 -9.108003E+00 -3.143574E+00 -1.103353E+00 6.781900E-01
ZONE T = "POP002_IND000"
002 003 -1.235294E+00 -1.088495E+00 -8.329216E-01 -1.479674E+01 -9.171734E+00 -3.156711E+00 -1.119956E+00 6.861220E-01
ZONE T = "POP002_IND000"
002 004 -1.303389E+00 -1.120683E+00 -7.939110E-01 -1.468895E+01 -8.169603E+00 -3.217983E+00 -1.159655E+00 6.112050E-01
ZONE T = "POP002_IND000"
002 005 -1.244504E+00 -1.097552E+00 -8.326538E-01 -1.476751E+01 -9.128031E+00 -3.174709E+00 -1.137328E+00 6.857010E-01
ZONE T = "POP002_IND000"
002 006 -1.230914E+00 -1.155870E+00 -7.899559E-01 -1.469183E+01 -9.017767E+00 -3.176740E+00 -1.123931E+00 7.149120E-01
ZONE T = "POP002_IND000"
002 007 -1.270884E+00 -1.095514E+00 -8.082862E-01 -1.476563E+01 -8.656510E+00 -3.174685E+00 -1.125354E+00 6.329160E-01
ZONE T = "POP002_IND000"
002 008 -1.289214E+00 -1.062252E+00 -8.930052E-01 -1.473626E+01 -8.940830E+00 -3.244471E+00 -1.222944E+00 6.660430E-01
ZONE T = "POP002_IND000"
002 009 -1.288643E+00 -1.063065E+00 -8.931511E-01 -1.473506E+01 -8.954499E+00 -3.244859E+00 -1.223538E+00 6.675730E-01
ZONE T = "POP002_IND000"
002 010 -1.226815E+00 -1.113461E+00 -8.282777E-01 -1.475590E+01 -9.284140E+00 -3.168553E+00 -1.131436E+00 7.149240E-01
ZONE T = "POP002_IND000"
002 011 -1.123491E+00 -1.134269E+00 -9.375666E-01 -1.471697E+01 -1.042723E+01 -3.195326E+00 -1.194779E+00 9.483450E-01
ZONE T = "POP002_IND000"
002 012 -1.238193E+00 -1.087590E+00 -8.321682E-01 -1.479626E+01 -9.138824E+00 -3.157952E+00 -1.120637E+00 6.815650E-01
ZONE T = "POP002_IND000"
002 013 -1.243170E+00 -1.089293E+00 -8.263881E-01 -1.479253E+01 -9.058476E+00 -3.158852E+00 -1.119076E+00 6.725110E-01
ZONE T = "POP002_IND000"
002 014 -1.236248E+00 -1.083764E+00 -8.312092E-01 -1.480750E+01 -9.130538E+00 -3.151222E+00 -1.113656E+00 6.787250E-01
ZONE T = "POP002_IND000"
002 015 -6.132529E-01 -1.133794E+00 -1.585360E+00 -1.449930E+01 8.500300E-01 -3.332407E+00 -1.102305E+00 2.105901E+00
ZONE T = "POP002_IND000"
002 016 -1.257847E+00 -1.093534E+00 -7.537079E-01 -1.483250E+01 -8.397541E+00 -3.105088E+00 -1.036724E+00 5.893950E-01
ZONE T = "POP002_IND000"
002 017 -1.281790E+00 -1.104115E+00 -7.877580E-01 -1.475358E+01 -8.394770E+00 -3.173663E+00 -1.114869E+00 6.100840E-01
ZONE T = "POP002_IND000"
002 018 -1.239856E+00 -1.087793E+00 -8.399572E-01 -1.478681E+01 -9.187596E+00 -3.167607E+00 -1.132856E+00 6.878940E-01
ZONE T = "POP002_IND000"
002 019 -1.287230E+00 -1.102263E+00 -7.891568E-01 -1.475047E+01 -8.324546E+00 -3.178650E+00 -1.119708E+00 6.041900E-01
ZONE T = "POP002_IND000"
002 020 -1.264692E+00 -1.096900E+00 -9.016623E-01 -1.468244E+01 -9.482848E+00 -3.263254E+00 -1.250822E+00 7.338700E-01
ZONE T = "POP002_IND000"
002 021 -1.270391E+00 -1.113205E+00 -8.392292E-01 -1.469996E+01 -8.961481E+00 -3.222825E+00 -1.186843E+00 6.820440E-01
ZONE T = "POP002_IND000"