VARIABLES = "population","individual","x1","x2","x3","objective1","objective2","p1","p2","p3"
ZONE T = "POP003_IND000"
003 000 -5.000000E+00 5.000000E+00 3.825953E-01 -6.099223E+00 7.991322E+00 3.825950E-01 -9.564883E+00 -1.038260E+01
ZONE T = "POP003_IND000"
003 001 -5.000000E+00 5.000000E+00 3.830861E-01 -6.099196E+00 7.992875E+00 3.830860E-01 -9.577153E+00 -1.038309E+01
ZONE T = "POP003_IND000"
003 002 -5.000000E+00 5.000000E+00 3.830534E-01 -6.099198E+00 7.992771E+00 3.830530E-01 -9.576336E+00 -1.038305E+01
ZONE T = "POP003_IND000"
003 003 -5.000000E+00 5.000000E+00 3.830877E-01 -6.099196E+00 7.992880E+00 3.830880E-01 -9.577194E+00 -1.038309E+01
ZONE T = "POP003_IND000"
003 004 -5.000000E+00 5.000000E+00 3.830823E-01 -6.099196E+00 7.992863E+00 3.830820E-01 -9.577057E+00 -1.038308E+01
ZONE T = "POP003_IND000"
003 005 -5.000000E+00 5.000000E+00 3.830793E-01 -6.099196E+00 7.992853E+00 3.830790E-01 -9.576982E+00 -1.038308E+01
ZONE T = "POP003_IND000"
003 006 -5.000000E+00 5.000000E+00 3.830749E-01 -6.099196E+00 7.992839E+00 3.830750E-01 -9.576873E+00 -1.038307E+01
ZONE T = "POP003_IND000"
003 007 -5.000000E+00 5.000000E+00 3.830921E-01 -6.099195E+00 7.992894E+00 3.830920E-01 -9.577302E+00 -1.038309E+01
ZONE T = "POP003_IND000"
003 008 -5.000000E+00 5.000000E+00 3.830506E-01 -6.099198E+00 7.992763E+00 3.830510E-01 -9.576266E+00 -1.038305E+01
ZONE T = "POP002_IND000"
002 000 -5.000000E+00 5.000000E+00 5.922892E-01 -6.084330E+00 8.936931E+00 5.922890E-01 -1.480723E+01 -1.059229E+01
ZONE T = "POP002_IND000"
002 001 -5.000000E+00 5.000000E+00 5.912608E-01 -6.084419E+00 8.930730E+00 5.912610E-01 -1.478152E+01 -1.059126E+01
ZONE T = "POP002_IND000"
002 002 -5.000000E+00 5.000000E+00 5.912110E-01 -6.084423E+00 8.930431E+00 5.912110E-01 -1.478027E+01 -1.059121E+01
ZONE T = "POP002_IND000"
002 003 -5.000000E+00 5.000000E+00 5.912455E-01 -6.084420E+00 8.930638E+00 5.912450E-01 -1.478114E+01 -1.059125E+01
ZONE T = "POP002_IND000"
002 004 -5.000000E+00 5.000000E+00 5.912069E-01 -6.084423E+00 8.930406E+00 5.912070E-01 -1.478017E+01 -1.059121E+01
ZONE T = "POP002_IND000"
002 005 -5.000000E+00 5.000000E+00 5.912029E-01 -6.084424E+00 8.930382E+00 5.912030E-01 -1.478007E+01 -1.059120E+01
ZONE T = "POP002_IND000"
002 006 -5.000000E+00 5.000000E+00 5.912327E-01 -6.084421E+00 8.930561E+00 5.912330E-01 -1.478082E+01 -1.059123E+01
ZONE T = "POP002_IND000"
002 007 -5.000000E+00 5.000000E+00 5.912387E-01 -6.084421E+00 8.930598E+00 5.912390E-01 -1.478097E+01 -1.059124E+01
ZONE T = "POP002_IND000"
002 008 -5.000000E+00 5.000000E+00 5.912329E-01 -6.084421E+00 8.930562E+00 5.912330E-01 -1.478082E+01 -1.059123E+01
ZONE T = "POP002_IND000"
002 009 -5.000000E+00 5.000000E+00 5.912363E-01 -6.084421E+00 8.930583E+00 5.912360E-01 -1.478091E+01 -1.059124E+01
ZONE T = "POP002_IND000"
002 010 -5.000000E+00 5.000000E+00 5.911875E-01 -6.084425E+00 8.930290E+00 5.911880E-01 -1.477969E+01 -1.059119E+01
ZONE T = "POP002_IND000"
002 011 -5.000000E+00 5.000000E+00 5.911950E-01 -6.084424E+00 8.930335E+00 5.911950E-01 -1.477988E+01 -1.059120E+01
ZONE T = "POP002_IND000"
002 012 -4.999924E+00 3.825842E+00 7.775366E-01 -7.419305E+00 1.012286E+01 -3.965450E-01 -1.487344E+01 -9.603303E+00
ZONE T = "POP002_IND000"
002 013 -5.000000E+00 5.000000E+00 5.911859E-01 -6.084425E+00 8.930280E+00 5.911860E-01 -1.477965E+01 -1.059119E+01
ZONE T = "POP002_IND000"
002 014 -5.000000E+00 5.000000E+00 5.912237E-01 -6.084422E+00 8.930507E+00 5.912240E-01 -1.478059E+01 -1.059122E+01
ZONE T = "POP002_IND000"
002 015 -5.000000E+00 5.000000E+00 5.912355E-01 -6.084421E+00 8.930578E+00 5.912350E-01 -1.478089E+01 -1.059123E+01
ZONE T = "POP002_IND000"
002 016 -5.000000E+00 5.000000E+00 5.911955E-01 -6.084424E+00 8.930337E+00 5.911950E-01 -1.477989E+01 -1.059120E+01
ZONE T = "POP002_IND000"
002 017 -5.000000E+00 5.000000E+00 5.912281E-01 -6.084422E+00 8.930534E+00 5.912280E-01 -1.478070E+01 -1.059123E+01
ZONE T = "POP002_IND000"
002 018 -4.999938E+00 5.000000E+00 5.912217E-01 -6.084443E+00 8.948681E+00 5.912840E-01 -1.478036E+01 -1.059116E+01
ZONE T = "POP002_IND000"
002 019 -5.000000E+00 5.000000E+00 5.911921E-01 -6.084425E+00 8.930317E+00 5.911920E-01 -1.477980E+01 -1.059119E+01
ZONE T = "POP002_IND000"
002 020 -5.000000E+00 5.000000E+00 5.911876E-01 -6.084425E+00 8.930290E+00 5.911880E-01 -1.477969E+01 -1.059119E+01
ZONE T = "POP002_IND000"
002 021 -5.000000E+00 5.000000E+00 5.911965E-01 -6.084424E+00 8.930344E+00 5.911970E-01 -1.477991E+01 -1.059120E+01
ZONE T = "POP002_IND000"
002 022 -5.000000E+00 5.000000E+00 5.912183E-01 -6.084422E+00 8.930474E+00 5.912180E-01 -1.478046E+01 -1.059122E+01
ZONE T = "POP002_IND000"
002 023 -5.000000E+00 5.000000E+00 5.912243E-01 -6.084422E+00 8.930511E+00 5.912240E-01 -1.478061E+01 -1.059122E+01
ZONE T = "POP002_IND000"
002 024 5.000000E+00 5.000000E+00 9.211063E-01 -6.048576E+00 5.545490E+00 1.092111E+01 2.302766E+01 -9.211060E-01
ZONE T = "POP002_IND000"
002 025 -5.000000E+00 5.000000E+00 5.911944E-01 -6.084424E+00 8.930331E+00 5.911940E-01 -1.477986E+01 -1.059119E+01
ZONE T = "POP002_IND000"
002 026 -5.000000E+00 5.000000E+00 5.912221E-01 -6.084422E+00 8.930497E+00 5.912220E-01 -1.478055E+01 -1.059122E+01
ZONE T = "POP002_IND000"
002 027 -5.000000E+00 5.000000E+00 5.912323E-01 -6.084421E+00 8.930559E+00 5.912320E-01 -1.478081E+01 -1.059123E+01
ZONE T = "POP002_IND000"
002 028 5.000000E+00 -5.000000E+00 5.000000E+00 -4.862335E+00 7.791493E+00 5.000000E+00 -1.250000E+02 5.000000E+00
ZONE T = "POP002_IND000"
002 029 5.000000E+00 -5.000000E+00 -5.000000E+00 -4.862335E+00 1.395190E+01 -5.000000E+00 1.250000E+02 1.500000E+01
ZONE T = "POP002_IND000"
002 030 5.000000E+00 -5.000000E+00 5.000000E+00 -4.862335E+00 7.791493E+00 5.000000E+00 -1.250000E+02 5.000000E+00
ZONE T = "POP002_IND000"
002 031 5.000000E+00 -5.000000E+00 -5.000000E+00 -4.862335E+00 1.395190E+01 -5.000000E+00 1.250000E+02 1.500000E+01
ZONE T = "DOE_IND000"
-1 000 1.535433E+00 -2.874016E+00 3.543307E-01 -1.081536E+01 7.014961E+00 -9.842520E-01 -1.563611E+00 4.055118E+00
ZONE T = "DOE_IND000"
-1 001 -2.322835E+00 3.976378E+00 -2.755906E-01 -8.487074E+00 5.603247E+00 1.377953E+00 2.545483E+00 -6.023622E+00
ZONE T = "DOE_IND000"
-1 002 -1.850394E+00 5.118110E-01 3.937008E-02 -1.583578E+01 2.702819E+00 -1.299213E+00 -3.728600E-02 -2.401575E+00
ZONE T = "DOE_IND000"
-1 003 4.330709E-01 3.818898E+00 -4.370079E+00 -7.768887E+00 -1.571349E+00 -1.181100E-01 -7.227469E+00 9.842520E-01
ZONE T = "DOE_IND000"
-1 004 2.795276E+00 -9.055118E-01 3.582677E+00 -1.033187E+01 7.881497E+00 5.472441E+00 -9.068311E+00 1.181100E-01
ZONE T = "DOE_IND000"
-1 005 1.771654E+00 2.322835E+00 -3.582677E+00 -9.832384E+00 -1.693749E+00 5.118110E-01 -1.474364E+01 3.031496E+00
ZONE T = "DOE_IND000"
-1 006 4.212598E+00 3.267717E+00 4.330709E-01 -8.615211E+00 2.019774E+00 7.913386E+00 5.961471E+00 5.118110E-01
ZONE T = "DOE_IND000"
-1 007 -2.874016E+00 4.448819E+00 1.614173E+00 -7.347936E+00 8.075263E+00 3.188976E+00 -2.063878E+01 -8.937008E+00
ZONE T = "DOE_IND000"
-1 008 -3.818898E+00 -3.661417E+00 -5.905512E-01 -8.233920E+00 1.377270E+01 -8.070866E+00 -8.257428E+00 4.330710E-01
ZONE T = "DOE_IND000"
-1 009 -1.968504E-01 3.346457E+00 -2.559055E+00 -9.420875E+00 8.216702E+00 5.905510E-01 1.685781E+00 -9.842520E-01
ZONE T = "DOE_IND000"
-1 010 -2.086614E+00 9.055118E-01 -5.118110E-01 -1.446679E+01 4.356004E+00 -1.692913E+00 9.670430E-01 -2.480315E+00
ZONE T = "DOE_IND000"
-1 011 7.480315E-01 2.755906E-01 -4.921260E+00 -1.225767E+01 7.826002E+00 -3.897638E+00 -1.014520E+00 5.393701E+00
ZONE T = "DOE_IND000"
-1 012 -3.543307E-01 4.133858E+00 2.952756E+00 -7.981671E+00 1.357027E+01 6.732283E+00 -4.325058E+00 -7.440945E+00
ZONE T = "DOE_IND000"
-1 013 3.031496E+00 3.661417E+00 -2.165354E+00 -8.135599E+00 7.826869E+00 4.527559E+00 -2.403451E+01 1.535433E+00
ZONE T = "DOE_IND000"
-1 014 3.188976E+00 5.000000E+00 1.220472E+00 -6.626520E+00 1.333971E+01 9.409449E+00 1.946029E+01 -3.031496E+00
ZONE T = "DOE_IND000"
-1 015 1.377953E+00 4.842520E+00 -3.425197E+00 -6.706839E+00 9.176483E+00 2.795276E+00 -2.285553E+01 -3.937000E-02
ZONE T = "DOE_IND000"
-1 016 -2.716535E+00 4.370079E+00 -8.267717E-01 -7.681746E+00 3.898616E+00 8.267720E-01 9.814998E+00 -6.259843E+00
ZONE T = "DOE_IND000"
-1 017 2.086614E+00 -5.118110E-01 1.929134E+00 -1.321582E+01 8.980599E+00 3.503937E+00 -2.060223E+00 6.692910E-01
ZONE T = "DOE_IND000"
-1 018 -1.771654E+00 -1.456693E+00 1.850394E+00 -1.256470E+01 7.882934E+00 -1.377953E+00 4.775413E+00 -2.165354E+00
ZONE T = "DOE_IND000"
-1 019 -2.952756E+00 4.685039E+00 4.527559E+00 -6.020596E+00 5.053956E+00 6.259843E+00 -6.263325E+01 -1.216535E+01
ZONE T = "DOE_IND000"
-1 020 4.685039E+00 3.503937E+00 -3.503937E+00 -6.815241E+00 1.260961E+01 4.685039E+00 -5.752092E+01 4.685039E+00
ZONE T = "DOE_IND000"
-1 021 -1.220472E+00 -4.212598E+00 -4.685039E+00 -6.995887E+00 2.200520E+00 -1.011811E+01 -2.408748E+01 7.677165E+00
ZONE T = "DOE_IND000"
-1 022 -4.370079E+00 1.456693E+00 -1.220472E+00 -1.081811E+01 -3.712186E+00 -4.133858E+00 7.769360E+00 -4.606299E+00
ZONE T = "DOE_IND000"
-1 023 2.007874E+00 1.220472E+00 3.661417E+00 -1.087176E+01 1.082325E+01 6.889764E+00 8.972504E+00 -2.874016E+00
ZONE T = "DOE_IND000"
-1 024 3.661417E+00 1.181102E-01 -4.330709E-01 -1.394761E+01 -1.504221E+00 3.346457E+00 -1.872820E-01 3.976378E+00
ZONE T = "DOE_IND000"
-1 025 5.905512E-01 -3.937008E-02 -1.968504E-01 -1.849011E+01 1.987870E+00 3.543310E-01 4.577000E-03 8.267720E-01
ZONE T = "DOE_IND000"
-1 026 1.141732E+00 3.740157E+00 -2.637795E+00 -8.578162E+00 1.794517E+01 2.244094E+00 -1.126407E+01 3.937000E-02
ZONE T = "DOE_IND000"
-1 027 2.244094E+00 -1.968504E-01 -3.897638E+00 -1.095450E+01 -1.960067E+00 -1.850394E+00 1.721785E+00 6.338583E+00
ZONE T = "DOE_IND000"
-1 028 1.062992E+00 2.244094E+00 -1.771654E+00 -1.173073E+01 7.739194E+00 1.535433E+00 -4.226199E+00 5.905510E-01
ZONE T = "DOE_IND000"
-1 029 -3.031496E+00 -4.291339E+00 2.401575E+00 -7.236406E+00 1.277492E+01 -4.921260E+00 3.124251E+01 -1.141732E+00
ZONE T = "DOE_IND000"
-1 030 2.401575E+00 -2.480315E+00 2.637795E+00 -9.860639E+00 6.503449E+00 2.559055E+00 -1.571246E+01 2.244094E+00
ZONE T = "DOE_IND000"
-1 031 4.133858E+00 -4.842520E+00 3.818898E+00 -5.711686E+00 8.573129E+00 3.110236E+00 -7.644780E+01 5.157480E+00
ZONE T = "DOE_IND000"
-1 032 1.181102E-01 3.582677E+00 -1.535433E+00 -9.468559E+00 1.121477E+01 2.165354E+00 -6.497200E-01 -1.929134E+00
ZONE T = "DOE_IND000"
-1 033 -2.401575E+00 -4.330709E-01 1.456693E+00 -1.351719E+01 -1.071319E+00 -1.377953E+00 1.515036E+00 -3.425197E+00
ZONE T = "DOE_IND000"
-1 034 3.818898E+00 -6.692913E-01 4.291339E+00 -8.800303E+00 -7.358630E-01 7.440945E+00 -1.096847E+01 1.968500E-01
ZONE T = "DOE_IND000"
-1 035 4.921260E+00 -2.952756E+00 4.133858E+00 -6.793581E+00 1.023099E+01 6.102362E+00 -6.007025E+01 3.740157E+00
ZONE T = "DOE_IND000"
-1 036 -5.118110E-01 -1.377953E+00 3.425197E+00 -1.223166E+01 4.431187E+00 1.535433E+00 2.415625E+00 -2.559055E+00
ZONE T = "DOE_IND000"
-1 037 -1.377953E+00 2.165354E+00 3.740157E+00 -1.019829E+01 4.612369E+00 4.527559E+00 -1.115972E+01 -7.283465E+00
ZONE T = "DOE_IND000"
-1 038 -3.188976E+00 -4.133858E+00 -4.448819E+00 -6.488080E+00 -7.312550E-01 -1.177165E+01 -5.864778E+01 5.393701E+00
ZONE T = "DOE_IND000"
-1 039 -3.110236E+00 4.212598E+00 -3.110236E+00 -7.017862E+00 1.483385E+01 -2.007874E+00 4.075086E+01 -4.212598E+00
ZONE T = "DOE_IND000"
-1 040 -1.299213E+00 -2.007874E+00 -7.480315E-01 -1.271291E+01 -7.178550E+00 -4.055118E+00 -1.951356E+00 1.456693E+00
ZONE T = "DOE_IND000"
-1 041 -3.976378E+00 -1.141732E+00 -5.000000E+00 -7.957118E+00 5.645268E+00 -1.011811E+01 -2.269980E+01 2.165354E+00
ZONE T = "DOE_IND000"
-1 042 1.850394E+00 3.110236E+00 8.267717E-01 -1.010273E+01 3.059311E+00 5.787402E+00 4.758204E+00 -2.086614E+00
ZONE T = "DOE_IND000"
-1 043 4.448819E+00 2.637795E+00 2.874016E+00 -8.137499E+00 9.310540E-01 9.960630E+00 3.372679E+01 -1.062992E+00
ZONE T = "DOE_IND000"
-1 044 -6.692913E-01 -1.692913E+00 2.322835E+00 -1.257619E+01 7.519453E+00 -3.937000E-02 2.631893E+00 -1.299213E+00
ZONE T = "DOE_IND000"
-1 045 -4.842520E+00 -2.559055E+00 -4.842520E+00 -6.687966E+00 9.086914E+00 -1.224409E+01 -6.000984E+01 2.559055E+00
ZONE T = "DOE_IND000"
-1 046 -4.606299E+00 1.062992E+00 2.559055E+00 -9.630221E+00 8.588524E+00 -9.842520E-01 -1.253031E+01 -8.228346E+00
ZONE T = "DOE_IND000"
-1 047 -5.905512E-01 -3.897638E+00 -3.267717E+00 -8.161511E+00 4.521291E+00 -7.755906E+00 -7.521482E+00 6.574803E+00
ZONE T = "DOE_IND000"
-1 048 3.503937E+00 1.299213E+00 -2.952756E+00 -9.981552E+00 3.426414E+00 1.850394E+00 -1.344200E+01 5.157480E+00
ZONE T = "DOE_IND000"
-1 049 4.606299E+00 1.535433E+00 -1.692913E+00 -1.011786E+01 7.276348E+00 4.448819E+00 -1.197341E+01 4.763780E+00
ZONE T = "DOE_IND000"
-1 050 1.929134E+00 -4.606299E+00 -3.818898E+00 -6.705161E+00 1.738126E+01 -6.496063E+00 3.393536E+01 1.035433E+01
ZONE T = "DOE_IND000"
-1 051 -3.582677E+00 1.141732E+00 9.055118E-01 -1.218587E+01 8.635429E+00 -1.535433E+00 -3.703958E+00 -5.629921E+00
ZONE T = "DOE_IND000"
-1 052 -3.503937E+00 -2.401575E+00 4.448819E+00 -7.913976E+00 7.780293E+00 -1.456693E+00 3.743666E+01 -5.551181E+00
ZONE T = "DOE_IND000"
-1 053 -2.559055E+00 -1.062992E+00 -3.346457E+00 -1.069997E+01 6.580858E+00 -6.968504E+00 -9.103217E+00 1.850394E+00
ZONE T = "DOE_IND000"
-1 054 3.110236E+00 2.795276E+00 5.905512E-01 -9.980250E+00 2.326482E+00 6.496063E+00 5.134233E+00 -2.755910E-01
ZONE T = "DOE_IND000"
-1 055 2.480315E+00 -2.755906E-01 4.842520E+00 -9.861233E+00 1.024213E+01 7.047244E+00 -3.310111E+00 -2.086614E+00
ZONE T = "DOE_IND000"
-1 056 -7.480315E-01 -3.818898E+00 3.503937E+00 -8.138605E+00 4.074809E+00 -1.062992E+00 1.000954E+01 -4.330710E-01
ZONE T = "DOE_IND000"
-1 057 1.456693E+00 -2.086614E+00 1.141732E+00 -1.222566E+01 7.833589E+00 5.118110E-01 -3.470359E+00 2.401575E+00
ZONE T = "DOE_IND000"
-1 058 4.527559E+00 2.007874E+00 -2.716535E+00 -8.802152E+00 2.562452E+00 3.818898E+00 -2.469539E+01 5.236220E+00
ZONE T = "DOE_IND000"
-1 059 -1.692913E+00 -2.322835E+00 7.480315E-01 -1.176600E+01 1.142956E+01 -3.267717E+00 2.941528E+00 -1.181100E-01
ZONE T = "DOE_IND000"
-1 060 2.755906E-01 4.527559E+00 4.921260E+00 -6.661788E+00 1.468971E+00 9.724409E+00 6.140514E+00 -9.173228E+00
ZONE T = "DOE_IND000"
-1 061 -9.055118E-01 -3.503937E+00 -1.141732E+00 -9.634239E+00 5.016770E-01 -5.551181E+00 -3.622553E+00 3.740157E+00
ZONE T = "DOE_IND000"
-1 062 3.267717E+00 -2.244094E+00 -4.606299E+00 -8.114468E+00 1.270636E+01 -3.582677E+00 3.377829E+01 1.011811E+01
ZONE T = "DOE_IND000"
-1 063 -2.637795E+00 -4.685039E+00 -4.763780E+00 -6.040036E+00 2.953513E+00 -1.208661E+01 -5.887162E+01 6.811024E+00
ZONE T = "DOE_IND000"
-1 064 9.842520E-01 -3.031496E+00 -4.212598E+00 -8.827994E+00 1.162887E+01 -6.259843E+00 1.256937E+01 8.228346E+00
ZONE T = "DOE_IND000"
-1 065 9.055118E-01 -9.842520E-01 -4.133858E+00 -1.192767E+01 -6.686100E-01 -4.212598E+00 3.684309E+00 6.023622E+00
ZONE T = "DOE_IND000"
-1 066 -1.062992E+00 1.968504E-01 1.377953E+00 -1.562566E+01 4.977470E-01 5.118110E-01 -2.883370E-01 -2.637795E+00
ZONE T = "DOE_IND000"
-1 067 -2.165354E+00 6.692913E-01 -3.661417E+00 -1.110547E+01 1.483290E+01 -5.157480E+00 5.306320E+00 8.267720E-01
ZONE T = "DOE_IND000"
-1 068 2.952756E+00 -1.929134E+00 1.771654E+00 -1.086142E+01 1.309963E+00 2.795276E+00 -1.009180E+01 3.110236E+00
ZONE T = "DOE_IND000"
-1 069 -5.000000E+00 -3.110236E+00 -3.543307E-01 -8.426793E+00 1.425090E+01 -8.464567E+00 -5.510261E+00 -1.535433E+00
ZONE T = "DOE_IND000"
-1 070 4.763780E+00 -1.850394E+00 -9.842520E-01 -1.017425E+01 6.578741E+00 1.929134E+00 8.676051E+00 7.598425E+00
ZONE T = "DOE_IND000"
-1 071 1.692913E+00 2.952756E+00 5.000000E+00 -8.193099E+00 2.364881E+00 9.645669E+00 2.499380E+01 -6.259843E+00
ZONE T = "DOE_IND000"
-1 072 -1.181102E-01 -8.267717E-01 -2.795276E+00 -1.404395E+01 -1.177700E-01 -3.740157E+00 -2.729590E-01 3.503937E+00
ZONE T = "DOE_IND000"
-1 073 2.559055E+00 1.614173E+00 2.086614E+00 -1.136017E+01 -1.656087E+00 6.259843E+00 8.619299E+00 -1.141732E+00
ZONE T = "DOE_IND000"
-1 074 3.582677E+00 -4.370079E+00 -1.614173E+00 -7.168430E+00 1.151309E+01 -2.401575E+00 2.527243E+01 9.566929E+00
ZONE T = "DOE_IND000"
-1 075 3.425197E+00 -1.299213E+00 3.110236E+00 -9.902226E+00 5.233070E-01 5.236220E+00 -1.384073E+01 1.614173E+00
ZONE T = "DOE_IND000"
-1 076 2.322835E+00 -3.267717E+00 -2.007874E+00 -9.128810E+00 2.909436E+00 -2.952756E+00 1.524050E+01 7.598425E+00
ZONE T = "DOE_IND000"
-1 077 -3.425197E+00 -7.480315E-01 -2.322835E+00 -1.109812E+01 5.162100E-01 -6.496063E+00 -5.951463E+00 -3.543310E-01
ZONE T = "DOE_IND000"
-1 078 8.267717E-01 -4.055118E+00 2.755906E-01 -8.806220E+00 1.031738E+01 -2.952756E+00 -9.239610E-01 4.606299E+00
ZONE T = "DOE_IND000"
-1 079 4.055118E+00 1.929134E+00 -4.055118E+00 -8.146685E+00 1.172597E+01 1.929134E+00 -3.172264E+01 6.181102E+00
ZONE T = "DOE_IND000"
-1 080 -8.267717E-01 -1.535433E+00 -2.401575E+00 -1.271025E+01 -8.897850E-01 -4.763780E+00 -3.048685E+00 3.110236E+00
ZONE T = "DOE_IND000"
-1 081 -1.535433E+00 8.267717E-01 -1.929134E+00 -1.362752E+01 5.033770E+00 -2.637795E+00 2.448944E+00 -4.330710E-01
ZONE T = "DOE_IND000"
-1 082 -3.267717E+00 3.897638E+00 3.188976E+00 -7.268320E+00 1.627158E+01 3.818898E+00 -4.061600E+01 -1.035433E+01
ZONE T = "DOE_IND000"
-1 083 5.118110E-01 -1.220472E+00 2.716535E+00 -1.318665E+01 4.457931E+00 2.007874E+00 -1.696887E+00 -9.842520E-01
ZONE T = "DOE_IND000"
-1 084 -2.244094E+00 2.480315E+00 5.118110E-01 -1.114830E+01 1.217028E+01 7.480310E-01 -2.848771E+00 -5.236220E+00
ZONE T = "DOE_IND000"
-1 085 2.716535E+00 -3.976378E+00 -3.031496E+00 -7.495591E+00 1.010454E+01 -4.291339E+00 3.274613E+01 9.724409E+00
ZONE T = "DOE_IND000"
-1 086 4.370079E+00 -4.921260E+00 -4.291339E+00 -5.390531E+00 1.823788E+01 -4.842520E+00 9.229078E+01 1.358268E+01
ZONE T = "DOE_IND000"
-1 087 -1.929134E+00 1.692913E+00 -2.086614E+00 -1.182770E+01 -5.506040E+00 -2.322835E+00 6.814583E+00 -1.535433E+00
ZONE T = "DOE_IND000"
-1 088 -4.763780E+00 4.606299E+00 4.212598E+00 -5.526759E+00 5.385330E-01 4.055118E+00 -9.243871E+01 -1.358268E+01
ZONE T = "DOE_IND000"
-1 089 -4.133858E+00 1.850394E+00 -1.062992E+00 -1.056806E+01 -3.596766E+00 -3.346457E+00 8.131109E+00 -4.921260E+00
ZONE T = "DOE_IND000"
-1 090 -3.740157E+00 -2.795276E+00 -4.527559E+00 -7.380420E+00 8.278724E+00 -1.106299E+01 -4.733459E+01 3.582677E+00
ZONE T = "DOE_IND000"
-1 091 2.165354E+00 3.031496E+00 4.606299E+00 -8.066124E+00 4.665705E+00 9.803150E+00 3.023696E+01 -5.472441E+00
ZONE T = "DOE_IND000"
-1 092 2.874016E+00 -5.000000E+00 4.370079E+00 -5.805277E+00 1.225782E+01 2.244094E+00 -6.279838E+01 3.503937E+00
ZONE T = "DOE_IND000"
-1 093 -3.897638E+00 3.937008E-02 3.897638E+00 -9.172088E+00 6.013914E+00 3.937000E-02 -5.980940E-01 -7.834646E+00
ZONE T = "DOE_IND000"
-1 094 -2.795276E+00 1.377953E+00 -1.456693E+00 -1.205804E+01 6.425992E+00 -2.874016E+00 5.610828E+00 -2.716535E+00
ZONE T = "DOE_IND000"
-1 095 3.976378E+00 2.401575E+00 -3.188976E+00 -8.449584E+00 8.316968E+00 3.188976E+00 -3.045335E+01 4.763780E+00
ZONE T = "DOE_IND000"
-1 096 -4.212598E+00 5.905512E-01 1.299213E+00 -1.178785E+01 1.312626E+01 -2.322835E+00 -3.232123E+00 -6.102362E+00
ZONE T = "DOE_IND000"
-1 097 -3.937008E-02 3.543307E-01 -6.692913E-01 -1.790633E+01 -1.815500E-02 -3.543310E-01 9.337000E-03 2.755910E-01
ZONE T = "DOE_IND000"
-1 098 3.937008E-02 2.086614E+00 6.692913E-01 -1.303914E+01 5.744844E+00 2.795276E+00 5.498200E-02 -2.716535E+00
ZONE T = "DOE_IND000"
-1 099 -2.480315E+00 -4.527559E+00 3.031496E+00 -6.924213E+00 1.264496E+01 -3.976378E+00 3.404301E+01 -9.842520E-01
ZONE T = "DOE_IND000"
-1 100 -4.527559E+00 -1.181102E-01 3.267717E+00 -9.241877E+00 9.410789E+00 -1.377953E+00 1.747415E+00 -7.677165E+00
ZONE T = "DOE_IND000"
-1 101 4.842520E+00 4.763780E+00 -2.244094E+00 -6.058528E+00 2.072308E+01 7.362205E+00 -5.176833E+01 2.322835E+00
ZONE T = "DOE_IND000"
-1 102 1.968504E-01 -5.905512E-01 -1.850394E+00 -1.561033E+01 1.318058E+00 -2.244094E+00 2.151090E-01 2.637795E+00
ZONE T = "DOE_IND000"
-1 103 -3.346457E+00 -3.346457E+00 1.535433E+00 -8.669339E+00 6.575153E+00 -5.157480E+00 1.719496E+01 -1.535433E+00
ZONE T = "DOE_IND000"
-1 104 -3.661417E+00 -3.543307E-01 4.685039E+00 -8.699191E+00 1.481834E+01 6.692910E-01 6.078148E+00 -7.992126E+00
ZONE T = "DOE_IND000"
-1 105 -4.055118E+00 4.291339E+00 1.062992E+00 -7.200625E+00 1.289576E+01 1.299213E+00 -1.849807E+01 -9.409449E+00
ZONE T = "DOE_IND000"
-1 106 -4.291339E+00 -4.763780E+00 -3.937008E-02 -6.630547E+00 4.302460E+00 -9.094488E+00 -8.048420E-01 5.118110E-01
ZONE T = "DOE_IND000"
-1 107 4.291339E+00 -1.771654E+00 1.968504E-01 -1.095247E+01 6.060526E+00 2.716535E+00 -1.496607E+00 5.866142E+00
ZONE T = "DOE_IND000"
-1 108 3.543307E-01 -2.716535E+00 2.165354E+00 -1.077337E+01 -3.244207E+00 -1.968500E-01 -2.084266E+00 9.055120E-01
ZONE T = "DOE_IND000"
-1 109 -2.007874E+00 -3.582677E+00 2.480315E+00 -8.581450E+00 -6.334290E-01 -3.110236E+00 1.784230E+01 -9.055120E-01
ZONE T = "DOE_IND000"
-1 110 6.692913E-01 2.874016E+00 -2.874016E+00 -9.977978E+00 6.855895E+00 6.692910E-01 -5.528324E+00 6.692910E-01
ZONE T = "DOE_IND000"
-1 111 1.614173E+00 1.771654E+00 1.181102E-01 -1.320280E+01 -4.441756E+00 3.503937E+00 3.377660E-01 -2.755910E-01
ZONE T = "DOE_IND000"
-1 112 1.220472E+00 2.716535E+00 4.055118E+00 -9.279647E+00 1.271053E+01 7.992126E+00 1.344457E+01 -5.551181E+00
ZONE T = "DOE_IND000"
-1 113 5.000000E+00 2.559055E+00 -1.181102E-01 -9.242660E+00 -1.501668E+00 7.440945E+00 -1.511253E+00 2.559055E+00
ZONE T = "DOE_IND000"
-1 114 -2.755906E-01 3.188976E+00 -2.480315E+00 -9.729509E+00 6.924364E+00 4.330710E-01 2.179829E+00 -9.842520E-01
ZONE T = "DOE_IND000"
-1 115 3.346457E+00 4.921260E+00 -3.740157E+00 -5.946170E+00 2.586568E+00 4.527559E+00 -6.159584E+01 2.165354E+00
ZONE T = "DOE_IND000"
-1 116 3.897638E+00 -4.448819E+00 4.763780E+00 -5.779244E+00 1.643761E+01 4.212598E+00 -8.260339E+01 3.582677E+00
ZONE T = "DOE_IND000"
-1 117 1.299213E+00 9.842520E-01 3.346457E+00 -1.219573E+01 1.188344E+01 5.629921E+00 4.279290E+00 -3.031496E+00
ZONE T = "DOE_IND000"
-1 118 -4.448819E+00 -2.637795E+00 2.244094E+00 -8.556882E+00 4.561681E+00 -4.842520E+00 2.633461E+01 -4.055118E+00
ZONE T = "DOE_IND000"
-1 119 -1.141732E+00 -3.188976E+00 2.007874E+00 -9.785434E+00 1.013600E+00 -2.322835E+00 7.310584E+00 3.937000E-02
ZONE T = "DOE_IND000"
-1 120 -4.330709E-01 -3.740157E+00 -9.055118E-01 -9.341165E+00 -3.903566E+00 -5.078740E+00 -1.466706E+00 4.212598E+00
ZONE T = "DOE_IND000"
-1 121 -4.921260E+00 -1.614173E+00 1.692913E+00 -9.812895E+00 6.950824E+00 -4.842520E+00 1.344811E+01 -5.000000E+00
ZONE T = "DOE_IND000"
-1 122 3.740157E+00 7.480315E-01 2.795276E+00 -1.026949E+01 1.314705E+01 7.283465E+00 7.820498E+00 1.968500E-01
ZONE T = "DOE_IND000"
-1 123 -1.614173E+00 -2.165354E+00 -1.377953E+00 -1.181159E+01 9.806678E+00 -5.157480E+00 -4.816299E+00 1.929134E+00
ZONE T = "DOE_IND000"
-1 124 2.637795E+00 4.330709E-01 -1.299213E+00 -1.346300E+01 -2.118691E+00 1.771654E+00 -1.484158E+00 3.503937E+00
ZONE T = "DOE_IND000"
-1 125 -9.842520E-01 -3.425197E+00 -3.976378E+00 -8.403524E+00 -6.512080E-01 -8.385827E+00 -1.340539E+01 6.417323E+00
ZONE T = "DOE_IND000"
-1 126 -4.685039E+00 3.425197E+00 3.976378E+00 -6.633257E+00 8.674887E+00 2.716535E+00 -6.380966E+01 -1.208661E+01
ZONE T = "DOE_IND000"
-1 127 -1.456693E+00 4.055118E+00 9.842520E-01 -8.564767E+00 5.973056E+00 3.582677E+00 -5.814037E+00 -6.496063E+00
ZONE T = "POP000_IND000"
000 000 -5.000000E+00 5.000000E+00 6.773449E-01 -6.076512E+00 9.508954E+00 6.773450E-01 -1.693362E+01 -1.067735E+01
ZONE T = "POP000_IND000"
000 001 -5.000000E+00 5.000000E+00 6.773072E-01 -6.076516E+00 9.508675E+00 6.773070E-01 -1.693268E+01 -1.067731E+01
ZONE T = "POP000_IND000"
000 002 -5.000000E+00 4.999981E+00 6.773177E-01 -6.076535E+00 9.503055E+00 6.772980E-01 -1.693288E+01 -1.067730E+01
ZONE T = "POP000_IND000"
000 003 -5.000000E+00 5.000000E+00 6.773205E-01 -6.076514E+00 9.508773E+00 6.773210E-01 -1.693301E+01 -1.067732E+01
ZONE T = "POP000_IND000"
000 004 -5.000000E+00 5.000000E+00 6.772884E-01 -6.076517E+00 9.508535E+00 6.772880E-01 -1.693221E+01 -1.067729E+01
ZONE T = "POP000_IND000"
000 005 -5.000000E+00 5.000000E+00 6.773377E-01 -6.076513E+00 9.508900E+00 6.773380E-01 -1.693344E+01 -1.067734E+01
ZONE T = "POP000_IND000"
000 006 -4.998366E+00 5.000000E+00 6.772868E-01 -6.077079E+00 9.965698E+00 6.789200E-01 -1.692664E+01 -1.067565E+01
ZONE T = "POP000_IND000"
000 007 -5.000000E+00 5.000000E+00 6.773456E-01 -6.076512E+00 9.508959E+00 6.773460E-01 -1.693364E+01 -1.067735E+01
ZONE T = "POP000_IND000"
000 008 -4.999975E+00 5.000000E+00 6.772063E-01 -6.076534E+00 9.515370E+00 6.772320E-01 -1.693007E+01 -1.067718E+01
ZONE T = "POP000_IND000"
000 009 -4.999975E+00 5.000000E+00 6.772063E-01 -6.076534E+00 9.515370E+00 6.772320E-01 -1.693007E+01 -1.067718E+01
ZONE T = "POP000_IND000"
000 010 -4.999975E+00 5.000000E+00 6.772063E-01 -6.076534E+00 9.515370E+00 6.772320E-01 -1.693007E+01 -1.067718E+01
ZONE T = "POP000_IND000"
000 011 -5.000000E+00 5.000000E+00 6.772942E-01 -6.076517E+00 9.508578E+00 6.772940E-01 -1.693236E+01 -1.067729E+01
ZONE T = "POP000_IND000"
000 012 -5.000000E+00 5.000000E+00 6.773191E-01 -6.076514E+00 9.508763E+00 6.773190E-01 -1.693298E+01 -1.067732E+01
ZONE T = "POP000_IND000"
000 013 -5.000000E+00 5.000000E+00 6.772912E-01 -6.076517E+00 9.508556E+00 6.772910E-01 -1.693228E+01 -1.067729E+01
ZONE T = "POP000_IND000"
000 014 -5.000000E+00 4.999915E+00 6.772442E-01 -6.076613E+00 9.483036E+00 6.771590E-01 -1.693082E+01 -1.067716E+01
ZONE T = "POP000_IND000"
000 015 -5.000000E+00 5.000000E+00 6.772947E-01 -6.076517E+00 9.508582E+00 6.772950E-01 -1.693237E+01 -1.067730E+01
ZONE T = "POP000_IND000"
000 016 -5.000000E+00 5.000000E+00 6.772962E-01 -6.076517E+00 9.508593E+00 6.772960E-01 -1.693240E+01 -1.067730E+01
ZONE T = "POP000_IND000"
000 017 -5.000000E+00 5.000000E+00 6.773431E-01 -6.076512E+00 9.508941E+00 6.773430E-01 -1.693358E+01 -1.067734E+01
ZONE T = "POP000_IND000"
000 018 -5.000000E+00 5.000000E+00 6.773023E-01 -6.076516E+00 9.508638E+00 6.773020E-01 -1.693256E+01 -1.067730E+01
ZONE T = "POP000_IND000"
000 019 -5.000000E+00 -5.000000E+00 7.477171E-01 -6.069281E+00 1.623051E+01 -9.252283E+00 1.869293E+01 -7.477170E-01
ZONE T = "POP000_IND000"
000 020 -4.999999E+00 5.000000E+00 6.772978E-01 -6.076517E+00 9.508833E+00 6.772990E-01 -1.693244E+01 -1.067730E+01
ZONE T = "POP000_IND000"
000 021 -5.000000E+00 5.000000E+00 6.773122E-01 -6.076515E+00 9.508712E+00 6.773120E-01 -1.693280E+01 -1.067731E+01
ZONE T = "POP000_IND000"
000 022 -4.999962E+00 5.000000E+00 6.773157E-01 -6.076528E+00 9.520064E+00 6.773540E-01 -1.693276E+01 -1.067728E+01
ZONE T = "POP000_IND000"
000 023 -5.000000E+00 4.999988E+00 6.773379E-01 -6.076525E+00 9.505453E+00 6.773260E-01 -1.693341E+01 -1.067733E+01
ZONE T = "POP000_IND000"
000 024 -5.000000E+00 5.000000E+00 6.773022E-01 -6.076516E+00 9.508637E+00 6.773020E-01 -1.693255E+01 -1.067730E+01
ZONE T = "POP000_IND000"
000 025 -5.000000E+00 5.000000E+00 6.773109E-01 -6.076515E+00 9.508702E+00 6.773110E-01 -1.693277E+01 -1.067731E+01
ZONE T = "POP000_IND000"
000 026 -4.997718E+00 5.000000E+00 6.772678E-01 -6.077304E+00 1.013251E+01 6.795500E-01 -1.692397E+01 -1.067499E+01
ZONE T = "POP000_IND000"
000 027 -5.000000E+00 5.000000E+00 6.773033E-01 -6.076516E+00 9.508645E+00 6.773030E-01 -1.693258E+01 -1.067730E+01
ZONE T = "POP000_IND000"
000 028 5.000000E+00 -5.000000E+00 -5.000000E+00 -4.862335E+00 1.395190E+01 -5.000000E+00 1.250000E+02 1.500000E+01
ZONE T = "POP000_IND000"
000 029 5.000000E+00 -5.000000E+00 -5.000000E+00 -4.862335E+00 1.395190E+01 -5.000000E+00 1.250000E+02 1.500000E+01
ZONE T = "POP000_IND000"
000 030 5.000000E+00 -5.000000E+00 -5.000000E+00 -4.862335E+00 1.395190E+01 -5.000000E+00 1.250000E+02 1.500000E+01
ZONE T = "POP000_IND000"
000 031 5.000000E+00 -5.000000E+00 -5.000000E+00 -4.862335E+00 1.395190E+01 -5.000000E+00 1.250000E+02 1.500000E+01
ZONE T = "POP001_IND000"
001 000 -5.000000E+00 5.000000E+00 5.563201E-01 -6.087331E+00 8.729979E+00 5.563200E-01 -1.390800E+01 -1.055632E+01
ZONE T = "POP001_IND000"
001 001 -5.000000E+00 5.000000E+00 5.570483E-01 -6.087272E+00 8.733969E+00 5.570480E-01 -1.392621E+01 -1.055705E+01
ZONE T = "POP001_IND000"
001 002 -5.000000E+00 5.000000E+00 5.570521E-01 -6.087271E+00 8.733990E+00 5.570520E-01 -1.392630E+01 -1.055705E+01
ZONE T = "POP001_IND000"
001 003 -5.000000E+00 5.000000E+00 5.570834E-01 -6.087269E+00 8.734162E+00 5.570830E-01 -1.392708E+01 -1.055708E+01
ZONE T = "POP001_IND000"
001 004 -5.000000E+00 5.000000E+00 5.570668E-01 -6.087270E+00 8.734071E+00 5.570670E-01 -1.392667E+01 -1.055707E+01
ZONE T = "POP001_IND000"
001 005 -5.000000E+00 5.000000E+00 5.570757E-01 -6.087269E+00 8.734119E+00 5.570760E-01 -1.392689E+01 -1.055708E+01
ZONE T = "POP001_IND000"
001 006 -5.000000E+00 -5.000000E+00 8.352146E-01 -6.059341E+00 1.702516E+01 -9.164785E+00 2.088037E+01 -8.352150E-01
ZONE T = "POP001_IND000"
001 007 -5.000000E+00 5.000000E+00 5.570496E-01 -6.087272E+00 8.733976E+00 5.570500E-01 -1.392624E+01 -1.055705E+01
ZONE T = "POP001_IND000"
001 008 -5.000000E+00 5.000000E+00 5.570386E-01 -6.087272E+00 8.733916E+00 5.570390E-01 -1.392596E+01 -1.055704E+01
ZONE T = "POP001_IND000"
001 009 -5.000000E+00 5.000000E+00 5.570753E-01 -6.087269E+00 8.734117E+00 5.570750E-01 -1.392688E+01 -1.055707E+01
ZONE T = "POP001_IND000"
001 010 -5.000000E+00 5.000000E+00 5.570288E-01 -6.087273E+00 8.733862E+00 5.570290E-01 -1.392572E+01 -1.055703E+01
ZONE T = "POP001_IND000"
001 011 -5.000000E+00 5.000000E+00 5.570646E-01 -6.087270E+00 8.734059E+00 5.570650E-01 -1.392662E+01 -1.055706E+01
ZONE T = "POP001_IND000"
001 012 -5.000000E+00 5.000000E+00 5.570373E-01 -6.087273E+00 8.733909E+00 5.570370E-01 -1.392593E+01 -1.055704E+01
ZONE T = "POP001_IND000"
001 013 -5.000000E+00 5.000000E+00 5.570425E-01 -6.087272E+00 8.733938E+00 5.570430E-01 -1.392606E+01 -1.055704E+01
ZONE T = "POP001_IND000"