VARIABLES = "population","individual","x1","x2","x3","objective1","objective2","p1","p2","p3"
ZONE T = "DOE_IND000"
-1 000 3.543307E-01 3.976378E+00 2.165354E+00 -8.543575E+00 2.408574E+00 6.496063E+00 3.050882E+00 -5.787402E+00
ZONE T = "DOE_IND000"
-1 001 9.055118E-01 -4.055118E+00 -3.582677E+00 -7.744596E+00 8.860166E+00 -6.732283E+00 1.315544E+01 8.543307E+00
ZONE T = "DOE_IND000"
-1 002 4.370079E+00 -1.968504E-01 -1.968504E-01 -1.362747E+01 8.616984E+00 3.976378E+00 1.693410E-01 4.763780E+00
ZONE T = "DOE_IND000"
-1 003 -3.188976E+00 3.110236E+00 -6.692913E-01 -9.395351E+00 -4.844520E+00 -7.480310E-01 6.638346E+00 -5.629921E+00
ZONE T = "DOE_IND000"
-1 004 -3.346457E+00 1.692913E+00 -1.062992E+00 -1.142796E+01 -3.306330E+00 -2.716535E+00 6.022128E+00 -3.976378E+00
ZONE T = "DOE_IND000"
-1 005 -9.055118E-01 -1.535433E+00 1.377953E+00 -1.362031E+01 5.052877E+00 -1.062992E+00 1.915840E+00 -7.480310E-01
ZONE T = "DOE_IND000"
-1 006 -1.850394E+00 3.188976E+00 -4.685039E+00 -8.002743E+00 7.873057E+00 -3.346457E+00 2.764577E+01 -3.543310E-01
ZONE T = "DOE_IND000"
-1 007 2.401575E+00 -3.425197E+00 3.267717E+00 -8.211469E+00 7.373402E+00 2.244094E+00 -2.687980E+01 2.559055E+00
ZONE T = "DOE_IND000"
-1 008 -1.929134E+00 4.212598E+00 9.842520E-01 -8.168360E+00 3.019000E+00 3.267717E+00 -7.998687E+00 -7.125984E+00
ZONE T = "DOE_IND000"
-1 009 -4.921260E+00 -2.165354E+00 3.740157E+00 -7.625155E+00 1.702080E+01 -3.346457E+00 3.985613E+01 -6.496063E+00
ZONE T = "DOE_IND000"
-1 010 3.897638E+00 2.795276E+00 -1.929134E+00 -8.901591E+00 6.083789E+00 4.763780E+00 -2.101786E+01 3.031496E+00
ZONE T = "DOE_IND000"
-1 011 -1.968504E-01 -4.842520E+00 -3.425197E+00 -6.846997E+00 1.174391E+00 -8.464567E+00 -3.265075E+00 8.070866E+00
ZONE T = "DOE_IND000"
-1 012 -3.031496E+00 4.291339E+00 3.897638E+00 -6.633147E+00 6.549994E+00 5.157480E+00 -5.070506E+01 -1.122047E+01
ZONE T = "DOE_IND000"
-1 013 -1.220472E+00 5.000000E+00 5.118110E-01 -7.231977E+00 -1.878044E+00 4.291339E+00 -3.123256E+00 -6.732283E+00
ZONE T = "DOE_IND000"
-1 014 -3.543307E-01 -3.543307E-01 4.842520E+00 -1.283307E+01 6.178219E+00 4.133858E+00 6.079800E-01 -4.842520E+00
ZONE T = "DOE_IND000"
-1 015 5.118110E-01 2.322835E+00 -4.606299E+00 -9.778202E+00 8.143584E+00 -1.771654E+00 -5.476210E+00 2.795276E+00
ZONE T = "DOE_IND000"
-1 016 1.141732E+00 1.929134E+00 4.055118E+00 -1.046025E+01 1.150123E+01 7.125984E+00 8.931618E+00 -4.842520E+00
ZONE T = "DOE_IND000"
-1 017 4.055118E+00 -2.480315E+00 2.874016E+00 -8.544811E+00 -2.887389E+00 4.448819E+00 -2.890677E+01 3.661417E+00
ZONE T = "DOE_IND000"
-1 018 -2.716535E+00 -3.740157E+00 3.188976E+00 -7.709009E+00 2.791322E+00 -3.267717E+00 3.240086E+01 -2.165354E+00
ZONE T = "DOE_IND000"
-1 019 6.692913E-01 9.842520E-01 -4.763780E+00 -1.166156E+01 5.944328E+00 -3.110236E+00 -3.138146E+00 4.448819E+00
ZONE T = "DOE_IND000"
-1 020 1.181102E-01 -2.007874E+00 -1.614173E+00 -1.266151E+01 2.919070E+00 -3.503937E+00 3.828020E-01 3.740157E+00
ZONE T = "DOE_IND000"
-1 021 -4.055118E+00 1.062992E+00 -3.188976E+00 -9.429262E+00 1.031443E+01 -6.181102E+00 1.374627E+01 -1.929134E+00
ZONE T = "DOE_IND000"
-1 022 4.133858E+00 -3.188976E+00 2.637795E+00 -7.890262E+00 6.183834E+00 3.582677E+00 -3.477347E+01 4.685039E+00
ZONE T = "DOE_IND000"
-1 023 -2.322835E+00 1.968504E-01 3.503937E+00 -1.123008E+01 1.063749E+00 1.377953E+00 -1.602178E+00 -6.023622E+00
ZONE T = "DOE_IND000"
-1 024 -4.763780E+00 -2.795276E+00 -3.937008E-02 -9.030389E+00 2.809040E-01 -7.598425E+00 -5.242550E-01 -1.929134E+00
ZONE T = "DOE_IND000"
-1 025 -3.937008E-02 3.818898E+00 2.795276E+00 -8.539722E+00 2.250031E+00 6.574803E+00 -4.202710E-01 -6.653543E+00
ZONE T = "DOE_IND000"
-1 026 -2.874016E+00 -4.606299E+00 3.031496E+00 -6.695249E+00 1.678725E+01 -4.448819E+00 4.013269E+01 -1.299213E+00
ZONE T = "DOE_IND000"
-1 027 3.582677E+00 2.401575E+00 4.212598E+00 -8.012049E+00 1.429516E+01 1.019685E+01 3.624548E+01 -3.031496E+00
ZONE T = "DOE_IND000"
-1 028 2.559055E+00 2.952756E+00 1.220472E+00 -9.855460E+00 9.051596E+00 6.732283E+00 9.222213E+00 -1.614173E+00
ZONE T = "DOE_IND000"
-1 029 2.007874E+00 -1.850394E+00 1.456693E+00 -1.203587E+01 9.579836E+00 1.614173E+00 -5.412135E+00 2.401575E+00
ZONE T = "DOE_IND000"
-1 030 2.244094E+00 2.480315E+00 -1.456693E+00 -1.074780E+01 2.478527E+00 3.267717E+00 -8.108042E+00 1.220472E+00
ZONE T = "DOE_IND000"
-1 031 -9.842520E-01 7.480315E-01 -2.755906E-01 -1.633570E+01 -1.287800E-02 -5.118110E-01 2.029040E-01 -1.456693E+00
ZONE T = "DOE_IND000"
-1 032 -3.897638E+00 -8.267717E-01 7.480315E-01 -1.250860E+01 1.670972E+00 -3.976378E+00 2.410499E+00 -3.818898E+00
ZONE T = "DOE_IND000"
-1 033 -5.905512E-01 -1.062992E+00 -2.007874E+00 -1.418954E+01 -7.087574E+00 -3.661417E+00 -1.260445E+00 2.480315E+00
ZONE T = "DOE_IND000"
-1 034 -3.582677E+00 1.614173E+00 -3.976378E+00 -8.795880E+00 -1.856670E+00 -5.944882E+00 2.299564E+01 -1.220472E+00
ZONE T = "DOE_IND000"
-1 035 4.763780E+00 2.165354E+00 -3.661417E+00 -7.782335E+00 1.427158E+01 3.267717E+00 -3.776851E+01 6.259843E+00
ZONE T = "DOE_IND000"
-1 036 -8.267717E-01 2.559055E+00 -5.118110E-01 -1.177361E+01 -4.120192E+00 1.220472E+00 1.082866E+00 -2.874016E+00
ZONE T = "DOE_IND000"
-1 037 2.086614E+00 -3.267717E+00 1.141732E+00 -9.609404E+00 1.378509E+01 -3.937000E-02 -7.784860E+00 4.212598E+00
ZONE T = "DOE_IND000"
-1 038 4.527559E+00 -1.771654E+00 2.480315E+00 -9.217468E+00 7.516496E+00 5.236220E+00 -1.989527E+01 3.818898E+00
ZONE T = "DOE_IND000"
-1 039 -1.377953E+00 -4.448819E+00 3.661417E+00 -7.098680E+00 -1.451420E-01 -2.165354E+00 2.244545E+01 -5.905510E-01
ZONE T = "DOE_IND000"
-1 040 -4.212598E+00 -3.503937E+00 -3.346457E+00 -7.136911E+00 1.671499E+01 -1.106299E+01 -4.939597E+01 2.637795E+00
ZONE T = "DOE_IND000"
-1 041 -4.370079E+00 -5.118110E-01 -3.897638E+00 -8.703510E+00 -1.059059E+00 -8.779528E+00 -8.717669E+00 3.937000E-02
ZONE T = "DOE_IND000"
-1 042 2.637795E+00 -1.220472E+00 2.401575E+00 -1.142635E+01 2.930971E+00 3.818898E+00 -7.731525E+00 1.456693E+00
ZONE T = "DOE_IND000"
-1 043 1.968504E-01 -4.330709E-01 -4.330709E-01 -1.793958E+01 5.232160E-01 -6.692910E-01 3.691900E-02 1.062992E+00
ZONE T = "DOE_IND000"
-1 044 4.212598E+00 -2.637795E+00 1.771654E+00 -8.997377E+00 2.993518E+00 3.346457E+00 -1.968657E+01 5.078740E+00
ZONE T = "DOE_IND000"
-1 045 1.614173E+00 2.086614E+00 -3.267717E+00 -1.050519E+01 4.784920E+00 4.330710E-01 -1.100618E+01 2.795276E+00
ZONE T = "DOE_IND000"
-1 046 -4.330709E-01 -2.559055E+00 -1.771654E+00 -1.131667E+01 1.145183E+01 -4.763780E+00 -1.963439E+00 3.897638E+00
ZONE T = "DOE_IND000"
-1 047 3.425197E+00 1.141732E+00 4.448819E+00 -8.848119E+00 1.555577E+01 9.015748E+00 1.739781E+01 -2.165354E+00
ZONE T = "DOE_IND000"
-1 048 1.535433E+00 2.637795E+00 -1.220472E+00 -1.102294E+01 -4.773586E+00 2.952756E+00 -4.943106E+00 1.181100E-01
ZONE T = "DOE_IND000"
-1 049 9.842520E-01 8.267717E-01 1.929134E+00 -1.430503E+01 1.419746E+01 3.740157E+00 1.569836E+00 -1.771654E+00
ZONE T = "DOE_IND000"
-1 050 1.771654E+00 -3.346457E+00 4.291339E+00 -8.056926E+00 2.871654E+00 2.716535E+00 -2.544233E+01 8.267720E-01
ZONE T = "DOE_IND000"
-1 051 4.291339E+00 3.425197E+00 -3.110236E+00 -7.298957E+00 1.392586E+01 4.606299E+00 -4.571637E+01 3.976378E+00
ZONE T = "DOE_IND000"
-1 052 -2.086614E+00 -3.582677E+00 -3.031496E+00 -8.275603E+00 -1.216176E+00 -8.700787E+00 -2.266245E+01 4.527559E+00
ZONE T = "DOE_IND000"
-1 053 3.267717E+00 -2.244094E+00 -1.377953E+00 -1.043133E+01 6.397419E+00 -3.543310E-01 1.010462E+01 6.889764E+00
ZONE T = "DOE_IND000"
-1 054 1.062992E+00 -4.133858E+00 1.062992E+00 -8.516999E+00 9.541640E+00 -2.007874E+00 -4.671062E+00 4.133858E+00
ZONE T = "DOE_IND000"
-1 055 -2.952756E+00 -1.299213E+00 -4.527559E+00 -9.143889E+00 4.980179E+00 -8.779528E+00 -1.736888E+01 2.874016E+00
ZONE T = "DOE_IND000"
-1 056 2.480315E+00 -7.480315E-01 -4.842520E+00 -9.709468E+00 4.313556E+00 -3.110236E+00 8.984587E+00 8.070866E+00
ZONE T = "DOE_IND000"
-1 057 -6.692913E-01 -3.818898E+00 -1.141732E+00 -9.111064E+00 2.067945E+00 -5.629921E+00 -2.918216E+00 4.291339E+00
ZONE T = "DOE_IND000"
-1 058 2.716535E+00 -2.401575E+00 2.559055E+00 -9.798842E+00 1.880058E+00 2.874016E+00 -1.669518E+01 2.559055E+00
ZONE T = "DOE_IND000"
-1 059 -2.165354E+00 -2.952756E+00 -2.086614E+00 -9.660232E+00 4.824071E+00 -7.204724E+00 -1.334132E+01 2.874016E+00
ZONE T = "DOE_IND000"
-1 060 -4.685039E+00 9.055118E-01 -4.448819E+00 -7.883898E+00 6.897560E+00 -8.228346E+00 1.887348E+01 -1.141732E+00
ZONE T = "DOE_IND000"
-1 061 -1.062992E+00 2.874016E+00 1.850394E+00 -1.046578E+01 -4.308376E+00 3.661417E+00 -5.653057E+00 -5.787402E+00
ZONE T = "DOE_IND000"
-1 062 -2.401575E+00 2.007874E+00 -2.874016E+00 -1.030686E+01 1.106937E+01 -3.267717E+00 1.385867E+01 -1.535433E+00
ZONE T = "DOE_IND000"
-1 063 -4.291339E+00 3.582677E+00 -9.055118E-01 -8.044740E+00 1.040789E+01 -1.614173E+00 1.392177E+01 -6.968504E+00
ZONE T = "DOE_IND000"
-1 064 -3.661417E+00 -2.322835E+00 5.905512E-01 -1.039308E+01 1.125657E+01 -5.393701E+00 5.022559E+00 -1.929134E+00
ZONE T = "DOE_IND000"
-1 065 1.220472E+00 5.905512E-01 -4.370079E+00 -1.176459E+01 6.058787E+00 -2.559055E+00 -3.149741E+00 5.000000E+00
ZONE T = "DOE_IND000"
-1 066 -1.456693E+00 1.771654E+00 -4.133858E+00 -1.038862E+01 -2.510320E+00 -3.818898E+00 1.066848E+01 9.055120E-01
ZONE T = "DOE_IND000"
-1 067 -3.267717E+00 3.031496E+00 1.968504E-01 -9.547223E+00 8.977714E+00 -3.937000E-02 -1.950014E+00 -6.496063E+00
ZONE T = "DOE_IND000"
-1 068 -1.692913E+00 -2.086614E+00 -4.212598E+00 -9.748118E+00 1.276184E+01 -7.992126E+00 -1.488082E+01 4.606299E+00
ZONE T = "DOE_IND000"
-1 069 1.692913E+00 -2.716535E+00 9.055118E-01 -1.091204E+01 -1.554390E+00 -1.181100E-01 -4.164321E+00 3.503937E+00
ZONE T = "DOE_IND000"
-1 070 -1.141732E+00 -3.110236E+00 -7.480315E-01 -1.042897E+01 2.222497E+00 -5.000000E+00 -2.656303E+00 2.716535E+00
ZONE T = "DOE_IND000"
-1 071 -3.425197E+00 -5.905512E-01 2.322835E+00 -1.118190E+01 1.055649E+00 -1.692913E+00 4.698523E+00 -5.157480E+00
ZONE T = "DOE_IND000"
-1 072 -2.480315E+00 -5.000000E+00 -3.740157E+00 -6.143393E+00 5.048353E+00 -1.122047E+01 -4.638384E+01 6.259843E+00
ZONE T = "DOE_IND000"
-1 073 4.921260E+00 -3.661417E+00 3.110236E+00 -6.758128E+00 7.689541E+00 4.370079E+00 -5.604268E+01 5.472441E+00
ZONE T = "DOE_IND000"
-1 074 -3.976378E+00 4.055118E+00 -4.055118E+00 -6.387401E+00 8.941912E+00 -3.976378E+00 6.538749E+01 -3.976378E+00
ZONE T = "DOE_IND000"
-1 075 3.346457E+00 4.606299E+00 -2.244094E+00 -6.791086E+00 9.893539E+00 5.708661E+00 -3.459222E+01 9.842520E-01
ZONE T = "DOE_IND000"
-1 076 -2.795276E+00 -4.921260E+00 4.330709E-01 -6.947061E+00 6.985632E+00 -7.283465E+00 5.957443E+00 1.692913E+00
ZONE T = "DOE_IND000"
-1 077 3.110236E+00 -3.937008E-02 3.425197E+00 -1.040865E+01 3.428191E+00 6.496063E+00 -4.194160E-01 -2.755910E-01
ZONE T = "DOE_IND000"
-1 078 -1.299213E+00 3.937008E-02 2.755906E-01 -1.716925E+01 -2.293241E+00 -9.842520E-01 -1.409600E-02 -1.614173E+00
ZONE T = "DOE_IND000"
-1 079 -2.637795E+00 4.370079E+00 -2.559055E+00 -7.234576E+00 1.915943E+01 -8.267720E-01 2.949918E+01 -4.448819E+00
ZONE T = "DOE_IND000"
-1 080 -1.535433E+00 -3.976378E+00 4.527559E+00 -7.259889E+00 4.913886E+00 -9.842520E-01 2.764284E+01 -2.086614E+00
ZONE T = "DOE_IND000"
-1 081 4.842520E+00 2.716535E+00 8.267717E-01 -8.961055E+00 1.616703E+01 8.385827E+00 1.087608E+01 1.299213E+00
ZONE T = "DOE_IND000"
-1 082 3.740157E+00 4.685039E+00 1.692913E+00 -6.707454E+00 1.102702E+01 1.011811E+01 2.966456E+01 -2.637795E+00
ZONE T = "DOE_IND000"
-1 083 -4.527559E+00 1.456693E+00 2.086614E+00 -9.873900E+00 1.337465E+01 -9.842520E-01 -1.376177E+01 -8.070866E+00
ZONE T = "DOE_IND000"
-1 084 2.795276E+00 -1.929134E+00 -2.165354E+00 -1.066880E+01 5.992600E+00 -1.299213E+00 1.167659E+01 6.889764E+00
ZONE T = "DOE_IND000"
-1 085 3.188976E+00 4.842520E+00 5.000000E+00 -5.621443E+00 1.306972E+01 1.303150E+01 7.721340E+01 -6.653543E+00
ZONE T = "DOE_IND000"
-1 086 8.267717E-01 -3.897638E+00 1.299213E+00 -8.904227E+00 9.497233E+00 -1.771654E+00 -4.186656E+00 3.425197E+00
ZONE T = "DOE_IND000"
-1 087 4.606299E+00 -1.456693E+00 2.007874E+00 -9.894006E+00 9.393811E+00 5.157480E+00 -1.347276E+01 4.055118E+00
ZONE T = "DOE_IND000"
-1 088 -3.503937E+00 4.133858E+00 1.181102E-01 -7.756142E+00 1.512667E+01 7.480310E-01 -1.710801E+00 -7.755906E+00
ZONE T = "DOE_IND000"
-1 089 2.952756E+00 -1.181102E-01 2.952756E+00 -1.107521E+01 1.067070E+01 5.787402E+00 -1.029776E+00 1.181100E-01
ZONE T = "DOE_IND000"
-1 090 5.000000E+00 1.377953E+00 4.921260E+00 -7.142534E+00 6.959592E+00 1.129921E+01 3.390632E+01 -1.299213E+00
ZONE T = "DOE_IND000"
-1 091 -1.614173E+00 3.346457E+00 4.606299E+00 -7.958754E+00 9.054910E+00 6.338583E+00 -2.488213E+01 -9.566929E+00
ZONE T = "DOE_IND000"
-1 092 -2.559055E+00 -1.614173E+00 -4.921260E+00 -9.009342E+00 1.683801E+01 -9.094488E+00 -2.032853E+01 3.976378E+00
ZONE T = "DOE_IND000"
-1 093 5.905512E-01 4.527559E+00 -2.401575E+00 -7.600367E+00 -2.711656E+00 2.716535E+00 -6.421223E+00 -1.535433E+00
ZONE T = "DOE_IND000"
-1 094 1.850394E+00 -9.055118E-01 3.346457E+00 -1.162208E+01 9.644360E-01 4.291339E+00 -5.607167E+00 -5.905510E-01
ZONE T = "DOE_IND000"
-1 095 1.377953E+00 2.755906E-01 -2.795276E+00 -1.325193E+01 5.788820E+00 -1.141732E+00 -1.061508E+00 3.897638E+00
ZONE T = "DOE_IND000"
-1 096 -4.606299E+00 3.543307E-01 -5.000000E+00 -7.638935E+00 1.245689E+01 -9.251969E+00 8.160766E+00 3.937000E-02
ZONE T = "DOE_IND000"
-1 097 4.448819E+00 1.299213E+00 1.614173E+00 -1.056493E+01 6.122595E+00 7.362205E+00 9.329859E+00 1.535433E+00
ZONE T = "DOE_IND000"
-1 098 -2.755906E-01 -4.370079E+00 3.818898E+00 -7.298103E+00 -2.237012E+00 -8.267720E-01 4.599299E+00 2.755910E-01
ZONE T = "DOE_IND000"
-1 099 2.755906E-01 -2.755906E-01 -1.181102E-01 -1.866808E+01 8.860740E-01 -1.181100E-01 8.970000E-03 6.692910E-01
ZONE T = "DOE_IND000"
-1 100 3.503937E+00 -4.763780E+00 3.543307E-01 -6.911044E+00 -2.040045E+00 -9.055120E-01 -5.914482E+00 7.913386E+00
ZONE T = "DOE_IND000"
-1 101 -1.771654E+00 -3.031496E+00 -1.692913E+00 -9.948290E+00 1.177387E+01 -6.496063E+00 -9.092233E+00 2.952756E+00
ZONE T = "DOE_IND000"
-1 102 -4.448819E+00 4.763780E+00 4.685039E+00 -5.343605E+00 1.832013E+01 5.000000E+00 -9.929094E+01 -1.389764E+01
ZONE T = "DOE_IND000"
-1 103 2.874016E+00 -2.874016E+00 -1.535433E+00 -9.647362E+00 8.364426E+00 -1.535433E+00 1.268263E+01 7.283465E+00
ZONE T = "DOE_IND000"
-1 104 -5.000000E+00 6.692913E-01 4.763780E+00 -7.466974E+00 1.720082E+01 4.330710E-01 -1.594178E+01 -1.043307E+01
ZONE T = "DOE_IND000"
-1 105 1.929134E+00 2.244094E+00 2.244094E+00 -1.083377E+01 -1.220840E-01 6.417323E+00 9.715041E+00 -2.559055E+00
ZONE T = "DOE_IND000"
-1 106 -4.842520E+00 3.661417E+00 -9.842520E-01 -7.654240E+00 -3.575930E+00 -2.165354E+00 1.745126E+01 -7.519685E+00
ZONE T = "DOE_IND000"
-1 107 -7.480315E-01 3.740157E+00 -8.267717E-01 -9.311648E+00 4.240328E+00 2.165354E+00 2.313105E+00 -3.661417E+00
ZONE T = "DOE_IND000"
-1 108 3.661417E+00 3.267717E+00 -2.480315E+00 -8.149632E+00 -9.680900E-01 4.448819E+00 -2.967566E+01 2.874016E+00
ZONE T = "DOE_IND000"
-1 109 -3.110236E+00 1.220472E+00 1.535433E+00 -1.188132E+01 1.246196E+01 -3.543310E-01 -5.828439E+00 -5.866142E+00
ZONE T = "DOE_IND000"
-1 110 1.299213E+00 -4.212598E+00 -2.637795E+00 -7.841578E+00 1.599925E+01 -5.551181E+00 1.443681E+01 8.149606E+00
ZONE T = "DOE_IND000"
-1 111 -2.007874E+00 -6.692913E-01 4.370079E+00 -1.067926E+01 4.287840E+00 1.692913E+00 5.872742E+00 -5.708661E+00
ZONE T = "DOE_IND000"
-1 112 3.818898E+00 1.181102E-01 -4.291339E+00 -8.894901E+00 4.890842E+00 -3.543310E-01 -1.935612E+00 7.992126E+00
ZONE T = "DOE_IND000"
-1 113 2.322835E+00 3.503937E+00 3.937008E-02 -9.275427E+00 4.949480E-01 5.866142E+00 3.204360E-01 -1.220472E+00
ZONE T = "DOE_IND000"
-1 114 -2.244094E+00 4.448819E+00 3.976378E+00 -6.723461E+00 1.363136E+01 6.181102E+00 -3.969845E+01 -1.066929E+01
ZONE T = "DOE_IND000"
-1 115 -4.133858E+00 -9.842520E-01 3.582677E+00 -9.031099E+00 2.342142E+00 -1.535433E+00 1.457705E+01 -6.732283E+00
ZONE T = "DOE_IND000"
-1 116 2.165354E+00 -1.141732E+00 -3.543307E-01 -1.400225E+01 -5.129181E+00 6.692910E-01 8.759960E-01 3.661417E+00
ZONE T = "DOE_IND000"
-1 117 7.480315E-01 -1.377953E+00 -1.299213E+00 -1.415528E+01 -1.219577E+00 -1.929134E+00 1.339166E+00 3.425197E+00
ZONE T = "DOE_IND000"
-1 118 4.330709E-01 1.535433E+00 6.692913E-01 -1.442169E+01 2.227587E+00 2.637795E+00 4.450460E-01 -1.771654E+00
ZONE T = "DOE_IND000"
-1 119 4.685039E+00 -4.685039E+00 -3.503937E+00 -5.761108E+00 1.370991E+01 -3.503937E+00 7.690999E+01 1.287402E+01
ZONE T = "DOE_IND000"
-1 120 3.031496E+00 3.897638E+00 4.133858E+00 -6.934862E+00 1.782554E+01 1.106299E+01 4.884432E+01 -5.000000E+00
ZONE T = "DOE_IND000"
-1 121 -5.118110E-01 -4.291339E+00 -2.322835E+00 -7.981657E+00 7.596007E+00 -7.125984E+00 -5.101768E+00 6.102362E+00
ZONE T = "DOE_IND000"
-1 122 1.456693E+00 4.330709E-01 -1.850394E+00 -1.421711E+01 3.895250E+00 3.937000E-02 -1.167323E+00 2.874016E+00
ZONE T = "DOE_IND000"
-1 123 -3.740157E+00 -1.692913E+00 -2.716535E+00 -9.671532E+00 2.491364E+00 -8.149606E+00 -1.720046E+01 6.692910E-01
ZONE T = "DOE_IND000"
-1 124 3.976378E+00 5.118110E-01 -5.905512E-01 -1.303812E+01 4.109064E+00 3.897638E+00 -1.201863E+00 4.055118E+00
ZONE T = "DOE_IND000"
-1 125 3.937008E-02 1.850394E+00 2.716535E+00 -1.208832E+01 8.853561E+00 4.606299E+00 1.979000E-01 -4.527559E+00
ZONE T = "DOE_IND000"
-1 126 -1.181102E-01 4.921260E+00 -3.818898E+00 -6.613126E+00 9.479935E+00 9.842520E-01 2.219739E+00 -1.220472E+00
ZONE T = "DOE_IND000"
-1 127 -3.818898E+00 -4.527559E+00 -2.952756E+00 -6.450981E+00 1.450070E+01 -1.129921E+01 -5.105399E+01 3.661417E+00
ZONE T = "POP000_IND000"
000 000 -5.905512E-01 -1.062992E+00 -2.007874E+00 -1.418954E+01 -7.087574E+00 -3.661417E+00 -1.260445E+00 2.480315E+00
ZONE T = "POP000_IND000"
000 001 1.968504E-01 -4.330709E-01 -4.330709E-01 -1.793958E+01 5.232160E-01 -6.692910E-01 3.691900E-02 1.062992E+00
ZONE T = "POP000_IND000"
000 002 -1.299213E+00 3.937008E-02 2.755906E-01 -1.716925E+01 -2.293241E+00 -9.842520E-01 -1.409600E-02 -1.614173E+00
ZONE T = "POP000_IND000"
000 003 2.755906E-01 -2.755906E-01 -1.181102E-01 -1.866808E+01 8.860740E-01 -1.181100E-01 8.970000E-03 6.692910E-01
ZONE T = "POP000_IND000"
000 004 -5.000000E+00 1.518803E+00 -5.000000E+00 -7.033010E+00 1.303483E+01 -8.481197E+00 3.797008E+01 -1.518803E+00
ZONE T = "POP000_IND000"
000 005 -4.740472E+00 5.000000E+00 -5.000000E+00 -4.951990E+00 1.213046E+01 -4.740472E+00 1.185118E+02 -4.740472E+00
ZONE T = "POP000_IND000"
000 006 -4.505512E+00 5.000000E+00 -3.513386E+00 -5.548367E+00 1.122285E+01 -3.018898E+00 7.914801E+01 -5.992126E+00
ZONE T = "POP000_IND000"
000 007 -5.000000E+00 5.000000E+00 -4.795276E+00 -4.932995E+00 1.227795E+01 -4.795276E+00 1.198819E+02 -5.204724E+00
ZONE T = "POP000_IND000"
000 008 -5.000000E+00 5.000000E+00 -4.448819E+00 -5.053459E+00 1.011710E+01 -4.448819E+00 1.112205E+02 -5.551181E+00
ZONE T = "POP000_IND000"
000 009 -4.505512E+00 5.000000E+00 -5.000000E+00 -5.033700E+00 1.231572E+01 -4.505512E+00 1.126378E+02 -4.505512E+00
ZONE T = "POP000_IND000"
000 010 -5.000000E+00 5.000000E+00 -5.000000E+00 -4.862335E+00 1.395190E+01 -5.000000E+00 1.250000E+02 -5.000000E+00
ZONE T = "POP000_IND000"
000 011 -5.000000E+00 5.000000E+00 -4.795276E+00 -4.932995E+00 1.227795E+01 -4.795276E+00 1.198819E+02 -5.204724E+00
ZONE T = "POP000_IND000"
000 012 2.165354E+00 -1.141732E+00 -3.543307E-01 -1.400225E+01 -5.129181E+00 6.692910E-01 8.759960E-01 3.661417E+00
ZONE T = "POP000_IND000"
000 013 -9.842520E-01 7.480315E-01 -2.755906E-01 -1.633570E+01 -1.287800E-02 -5.118110E-01 2.029040E-01 -1.456693E+00
ZONE T = "POP000_IND000"
000 014 7.480315E-01 -1.377953E+00 -1.299213E+00 -1.415528E+01 -1.219577E+00 -1.929134E+00 1.339166E+00 3.425197E+00
ZONE T = "POP000_IND000"
000 015 -5.000000E+00 9.181106E-01 -5.000000E+00 -7.235601E+00 1.783678E+01 -9.081889E+00 2.295276E+01 -9.181110E-01
ZONE T = "POP000_IND000"
000 016 -4.848819E+00 5.000000E+00 -2.404724E+00 -5.780064E+00 -2.696766E+00 -2.253543E+00 5.830036E+01 -7.444094E+00
ZONE T = "POP000_IND000"
000 017 -4.604410E+00 9.181106E-01 -5.000000E+00 -7.527946E+00 1.564990E+01 -8.686300E+00 2.113679E+01 -5.225210E-01
ZONE T = "POP000_IND000"
000 018 -5.000000E+00 1.047244E+00 -5.000000E+00 -7.199656E+00 1.900664E+01 -8.952756E+00 2.618110E+01 -1.047244E+00
ZONE T = "POP000_IND000"
000 019 -5.000000E+00 5.000000E+00 -2.773228E+00 -5.618128E+00 6.432541E+00 -2.773228E+00 6.933070E+01 -7.226772E+00
ZONE T = "POP000_IND000"
000 020 -3.188976E+00 3.110236E+00 -6.692913E-01 -9.395351E+00 -4.844520E+00 -7.480310E-01 6.638346E+00 -5.629921E+00
ZONE T = "POP000_IND000"
000 021 -5.000000E+00 5.000000E+00 -2.773228E+00 -5.618128E+00 6.432541E+00 -2.773228E+00 6.933070E+01 -7.226772E+00
ZONE T = "POP000_IND000"
000 022 -1.577638E+00 -3.465512E+00 -5.000000E+00 -7.631473E+00 1.789528E+01 -1.004315E+01 -2.733661E+01 6.887874E+00
ZONE T = "POP000_IND000"
000 023 -5.905512E-01 -4.313386E+00 -5.000000E+00 -6.856000E+00 1.450796E+01 -9.903937E+00 -1.273638E+01 8.722835E+00
ZONE T = "POP000_IND000"
000 024 1.535433E+00 -5.000000E+00 -3.062992E+00 -6.608323E+00 1.049125E+01 -6.527559E+00 2.351509E+01 9.598425E+00
ZONE T = "POP000_IND000"
000 025 2.692914E-01 -7.795274E-01 -1.582677E+00 -1.550624E+01 4.095299E+00 -2.092913E+00 3.322360E-01 2.631496E+00
ZONE T = "POP000_IND000"
000 026 -2.800000E-01 -5.000000E+00 -1.538583E+00 -7.185475E+00 1.076683E+01 -6.818583E+00 -2.154016E+00 6.258583E+00
ZONE T = "POP000_IND000"
000 027 1.088189E+00 -4.784567E+00 -3.141732E+00 -6.931010E+00 1.177093E+01 -6.838110E+00 1.635747E+01 9.014488E+00
ZONE T = "POP000_IND000"
000 028 -9.307086E-01 -3.507087E+00 -5.000000E+00 -7.787843E+00 1.051295E+01 -9.437795E+00 -1.632038E+01 7.576378E+00
ZONE T = "POP000_IND000"
000 029 -8.267717E-01 2.559055E+00 -5.118110E-01 -1.177361E+01 -4.120192E+00 1.220472E+00 1.082866E+00 -2.874016E+00
ZONE T = "POP000_IND000"
000 030 -2.671559E+00 -1.126740E+00 -2.685039E+00 -1.118532E+01 -2.965687E+00 -6.483338E+00 -8.082379E+00 1.140221E+00
ZONE T = "POP000_IND000"
000 031 1.535433E+00 2.637795E+00 -1.220472E+00 -1.102294E+01 -4.773586E+00 2.952756E+00 -4.943106E+00 1.181100E-01
ZONE T = "POP001_IND000"
001 000 -5.905512E-01 -1.062992E+00 -2.007874E+00 -1.418954E+01 -7.087574E+00 -3.661417E+00 -1.260445E+00 2.480315E+00
ZONE T = "POP001_IND000"
001 001 1.968504E-01 -4.330709E-01 -4.330709E-01 -1.793958E+01 5.232160E-01 -6.692910E-01 3.691900E-02 1.062992E+00
ZONE T = "POP001_IND000"
001 002 -1.299213E+00 3.937008E-02 2.755906E-01 -1.716925E+01 -2.293241E+00 -9.842520E-01 -1.409600E-02 -1.614173E+00
ZONE T = "POP001_IND000"
001 003 2.755906E-01 -2.755906E-01 -1.181102E-01 -1.866808E+01 8.860740E-01 -1.181100E-01 8.970000E-03 6.692910E-01
ZONE T = "POP001_IND000"
001 004 -5.905512E-01 -1.062992E+00 -2.007874E+00 -1.418954E+01 -7.087574E+00 -3.661417E+00 -1.260445E+00 2.480315E+00
ZONE T = "POP001_IND000"
001 005 1.968504E-01 -4.330709E-01 -4.330709E-01 -1.793958E+01 5.232160E-01 -6.692910E-01 3.691900E-02 1.062992E+00
ZONE T = "POP001_IND000"
001 006 -1.299213E+00 3.937008E-02 2.755906E-01 -1.716925E+01 -2.293241E+00 -9.842520E-01 -1.409600E-02 -1.614173E+00
ZONE T = "POP001_IND000"
001 007 2.755906E-01 -2.755906E-01 -1.181102E-01 -1.866808E+01 8.860740E-01 -1.181100E-01 8.970000E-03 6.692910E-01
ZONE T = "POP001_IND000"
001 008 2.165354E+00 -1.141732E+00 -3.543307E-01 -1.400225E+01 -5.129181E+00 6.692910E-01 8.759960E-01 3.661417E+00
ZONE T = "POP001_IND000"
001 009 -5.000000E+00 1.518803E+00 -5.000000E+00 -7.033010E+00 1.303483E+01 -8.481197E+00 3.797008E+01 -1.518803E+00
ZONE T = "POP001_IND000"
001 010 -4.740472E+00 5.000000E+00 -5.000000E+00 -4.951990E+00 1.213046E+01 -4.740472E+00 1.185118E+02 -4.740472E+00
ZONE T = "POP001_IND000"
001 011 -4.505512E+00 5.000000E+00 -3.513386E+00 -5.548367E+00 1.122285E+01 -3.018898E+00 7.914801E+01 -5.992126E+00
ZONE T = "POP001_IND000"
001 012 -5.000000E+00 5.000000E+00 -4.795276E+00 -4.932995E+00 1.227795E+01 -4.795276E+00 1.198819E+02 -5.204724E+00
ZONE T = "POP001_IND000"
001 013 -5.000000E+00 5.000000E+00 -4.448819E+00 -5.053459E+00 1.011710E+01 -4.448819E+00 1.112205E+02 -5.551181E+00
ZONE T = "POP001_IND000"
001 014 -4.505512E+00 5.000000E+00 -5.000000E+00 -5.033700E+00 1.231572E+01 -4.505512E+00 1.126378E+02 -4.505512E+00
ZONE T = "POP001_IND000"
001 015 -5.000000E+00 5.000000E+00 -5.000000E+00 -4.862335E+00 1.395190E+01 -5.000000E+00 1.250000E+02 -5.000000E+00
ZONE T = "POP001_IND000"
001 016 -5.000000E+00 5.000000E+00 -4.795276E+00 -4.932995E+00 1.227795E+01 -4.795276E+00 1.198819E+02 -5.204724E+00
ZONE T = "POP001_IND000"
001 017 2.165354E+00 -1.141732E+00 -3.543307E-01 -1.400225E+01 -5.129181E+00 6.692910E-01 8.759960E-01 3.661417E+00
ZONE T = "POP001_IND000"
001 018 -9.842520E-01 7.480315E-01 -2.755906E-01 -1.633570E+01 -1.287800E-02 -5.118110E-01 2.029040E-01 -1.456693E+00
ZONE T = "POP001_IND000"
001 019 7.480315E-01 -1.377953E+00 -1.299213E+00 -1.415528E+01 -1.219577E+00 -1.929134E+00 1.339166E+00 3.425197E+00
ZONE T = "POP001_IND000"
001 020 -9.842520E-01 7.480315E-01 -2.755906E-01 -1.633570E+01 -1.287800E-02 -5.118110E-01 2.029040E-01 -1.456693E+00
ZONE T = "POP001_IND000"
001 021 7.480315E-01 -1.377953E+00 -1.299213E+00 -1.415528E+01 -1.219577E+00 -1.929134E+00 1.339166E+00 3.425197E+00
ZONE T = "POP001_IND000"
001 022 -5.000000E+00 1.047244E+00 -5.000000E+00 -7.199656E+00 1.900664E+01 -8.952756E+00 2.618110E+01 -1.047244E+00
ZONE T = "POP001_IND000"
001 023 1.535433E+00 2.637795E+00 -1.220472E+00 -1.102294E+01 -4.773586E+00 2.952756E+00 -4.943106E+00 1.181100E-01
ZONE T = "POP001_IND000"
001 024 -5.000000E+00 9.181106E-01 -5.000000E+00 -7.235601E+00 1.783678E+01 -9.081889E+00 2.295276E+01 -9.181110E-01
ZONE T = "POP001_IND000"
001 025 -8.267717E-01 2.559055E+00 -5.118110E-01 -1.177361E+01 -4.120192E+00 1.220472E+00 1.082866E+00 -2.874016E+00
ZONE T = "POP001_IND000"
001 026 -4.604410E+00 9.181106E-01 -5.000000E+00 -7.527946E+00 1.564990E+01 -8.686300E+00 2.113679E+01 -5.225210E-01
ZONE T = "POP001_IND000"
001 027 -8.267717E-01 2.559055E+00 -5.118110E-01 -1.177361E+01 -4.120192E+00 1.220472E+00 1.082866E+00 -2.874016E+00
ZONE T = "POP001_IND000"
001 028 -4.740472E+00 -1.176378E+00 5.000000E+00 -7.344654E+00 1.573299E+00 -9.168500E-01 2.788293E+01 -8.564095E+00
ZONE T = "POP001_IND000"
001 029 -4.542360E-01 -5.000000E+00 4.911811E+00 -6.125217E+00 6.491202E+00 -5.424250E-01 1.115561E+01 -3.660470E-01
ZONE T = "POP001_IND000"
001 030 -2.671559E+00 -1.126740E+00 -2.685039E+00 -1.118532E+01 -2.965687E+00 -6.483338E+00 -8.082379E+00 1.140221E+00
ZONE T = "POP001_IND000"
001 031 -5.000000E+00 5.000000E+00 -2.773228E+00 -5.618128E+00 6.432541E+00 -2.773228E+00 6.933070E+01 -7.226772E+00
ZONE T = "POP002_IND000"
002 000 -5.905512E-01 -1.062992E+00 -2.007874E+00 -1.418954E+01 -7.087574E+00 -3.661417E+00 -1.260445E+00 2.480315E+00
ZONE T = "POP002_IND000"
002 001 1.968504E-01 -4.330709E-01 -4.330709E-01 -1.793958E+01 5.232160E-01 -6.692910E-01 3.691900E-02 1.062992E+00
ZONE T = "POP002_IND000"
002 002 -1.299213E+00 3.937008E-02 2.755906E-01 -1.716925E+01 -2.293241E+00 -9.842520E-01 -1.409600E-02 -1.614173E+00
ZONE T = "POP002_IND000"
002 003 2.755906E-01 -2.755906E-01 -1.181102E-01 -1.866808E+01 8.860740E-01 -1.181100E-01 8.970000E-03 6.692910E-01
ZONE T = "POP002_IND000"
002 004 -5.905512E-01 -1.062992E+00 -2.007874E+00 -1.418954E+01 -7.087574E+00 -3.661417E+00 -1.260445E+00 2.480315E+00
ZONE T = "POP002_IND000"
002 005 1.968504E-01 -4.330709E-01 -4.330709E-01 -1.793958E+01 5.232160E-01 -6.692910E-01 3.691900E-02 1.062992E+00
ZONE T = "POP002_IND000"
002 006 -1.299213E+00 3.937008E-02 2.755906E-01 -1.716925E+01 -2.293241E+00 -9.842520E-01 -1.409600E-02 -1.614173E+00
ZONE T = "POP002_IND000"
002 007 2.755906E-01 -2.755906E-01 -1.181102E-01 -1.866808E+01 8.860740E-01 -1.181100E-01 8.970000E-03 6.692910E-01
ZONE T = "POP002_IND000"
002 008 -5.905512E-01 -1.062992E+00 -2.007874E+00 -1.418954E+01 -7.087574E+00 -3.661417E+00 -1.260445E+00 2.480315E+00
ZONE T = "POP002_IND000"
002 009 1.968504E-01 -4.330709E-01 -4.330709E-01 -1.793958E+01 5.232160E-01 -6.692910E-01 3.691900E-02 1.062992E+00
ZONE T = "POP002_IND000"
002 010 -1.299213E+00 3.937008E-02 2.755906E-01 -1.716925E+01 -2.293241E+00 -9.842520E-01 -1.409600E-02 -1.614173E+00
ZONE T = "POP002_IND000"
002 011 2.755906E-01 -2.755906E-01 -1.181102E-01 -1.866808E+01 8.860740E-01 -1.181100E-01 8.970000E-03 6.692910E-01
ZONE T = "POP002_IND000"
002 012 -5.905512E-01 -1.062992E+00 -2.007874E+00 -1.418954E+01 -7.087574E+00 -3.661417E+00 -1.260445E+00 2.480315E+00
ZONE T = "POP002_IND000"
002 013 1.968504E-01 -4.330709E-01 -4.330709E-01 -1.793958E+01 5.232160E-01 -6.692910E-01 3.691900E-02 1.062992E+00
ZONE T = "POP002_IND000"
002 014 -1.299213E+00 3.937008E-02 2.755906E-01 -1.716925E+01 -2.293241E+00 -9.842520E-01 -1.409600E-02 -1.614173E+00
ZONE T = "POP002_IND000"
002 015 2.755906E-01 -2.755906E-01 -1.181102E-01 -1.866808E+01 8.860740E-01 -1.181100E-01 8.970000E-03 6.692910E-01
ZONE T = "POP002_IND000"
002 016 -5.000000E+00 1.518803E+00 -5.000000E+00 -7.033010E+00 1.303483E+01 -8.481197E+00 3.797008E+01 -1.518803E+00
ZONE T = "POP002_IND000"
002 017 -5.000000E+00 5.000000E+00 -5.000000E+00 -4.862335E+00 1.395190E+01 -5.000000E+00 1.250000E+02 -5.000000E+00
ZONE T = "POP002_IND000"
002 018 -5.000000E+00 5.000000E+00 -4.795276E+00 -4.932995E+00 1.227795E+01 -4.795276E+00 1.198819E+02 -5.204724E+00
ZONE T = "POP002_IND000"
002 019 -4.740472E+00 5.000000E+00 -5.000000E+00 -4.951990E+00 1.213046E+01 -4.740472E+00 1.185118E+02 -4.740472E+00
ZONE T = "POP002_IND000"
002 020 -5.000000E+00 5.000000E+00 -4.795276E+00 -4.932995E+00 1.227795E+01 -4.795276E+00 1.198819E+02 -5.204724E+00
ZONE T = "POP002_IND000"
002 021 -5.000000E+00 5.000000E+00 -4.448819E+00 -5.053459E+00 1.011710E+01 -4.448819E+00 1.112205E+02 -5.551181E+00
ZONE T = "POP002_IND000"